# vtk DataFile Version 4.2
vtk output
ASCII
DATASET POLYDATA
POINTS 42001 double
40000 24000 0 40000 24200 0 40000 24199.99999 1.0000000006e-05 
40000 24000 1.0000000006e-05 40000 23800 0 40000 23800.00001 1.0000000006e-05 
40000 24400 0 40000 24399.99999 1.0000000006e-05 40000 24200 1.0000000006e-05 
40000 24600 0 40000 24599.99999 1.0000000006e-05 40000 24400 1.0000000006e-05 
40000 24800 0 40000 24799.99999 1.0000000006e-05 40000 24600 1.0000000006e-05 
40000 25000 0 40000 24999.99999 1.0000000006e-05 40000 24800 1.0000000006e-05 
40000 25200 0 40000 25199.99999 1.0000000006e-05 40000 25000 1.0000000006e-05 
40000 25400 0 40000 25399.99999 1.0000000006e-05 40000 25200 1.0000000006e-05 
40000 25600 0 40000 25599.99999 1.0000000006e-05 40000 25400 1.0000000006e-05 
40000 25800 0 40000 25799.99999 1.0000000006e-05 40000 25600 1.0000000006e-05 
40000 22400 0 40000 22600 0 40000 22599.99999 1.0000000006e-05 
40000 22400 1.0000000006e-05 40000 22200 0 40000 22200.00001 1.0000000006e-05 
40000 22800 0 40000 22799.99999 1.0000000006e-05 40000 22600 1.0000000006e-05 
40000 23000 0 40000 22999.99999 1.0000000006e-05 40000 22800 1.0000000006e-05 
40000 23200 0 40000 23199.99999 1.0000000006e-05 40000 23000 1.0000000006e-05 
40000 23400 0 40000 23399.99999 1.0000000006e-05 40000 23200 1.0000000006e-05 
40000 23600 0 40000 23800 1.0000000006e-05 40000 23600.00001 1.0000000006e-05 
40000 23600 1.0000000006e-05 40000 23400.00001 1.0000000006e-05 40000 22000 0 
40000 22200 1.0000000006e-05 40000 22000.00001 1.0000000006e-05 40000 21800 0 
40000 22000 1.0000000006e-05 40000 21800.00001 1.0000000006e-05 40000 21600 0 
40000 21800 1.0000000006e-05 40000 21600.00001 1.0000000006e-05 40000 21400 0 
40000 21600 1.0000000006e-05 40000 21400.00001 1.0000000006e-05 40000 21200 0 
40000 21400 1.0000000006e-05 40000 21200.00001 1.0000000006e-05 40000 21000 0 
40000 21200 1.0000000006e-05 40000 21000.00001 1.0000000006e-05 40000 20800 0 
40000 21000 1.0000000006e-05 40000 20800.00001 1.0000000006e-05 40000 20600 0 
40000 20800 1.0000000006e-05 40000 20600.00001 1.0000000006e-05 40000 19200 0 
40000 19400 0 40000 19399.99999 1.0000000006e-05 40000 19200 1.0000000006e-05 
40000 19000 0 40000 19000.00001 1.0000000006e-05 40000 19600 0 
40000 19599.99999 1.0000000006e-05 40000 19400 1.0000000006e-05 40000 19800 0 
40000 19799.99999 1.0000000006e-05 40000 19600 1.0000000006e-05 40000 20000 0 
40000 19999.99999 1.0000000006e-05 40000 19800 1.0000000006e-05 40000 20200 0 
40000 20199.99999 1.0000000006e-05 40000 20000 1.0000000006e-05 40000 20400 0 
40000 20399.99999 1.0000000006e-05 40000 20200 1.0000000006e-05 40000 20599.99999 1.0000000006e-05 
40000 20400 1.0000000006e-05 40000 16000 0 40000 16200 0 
40000 16199.99999 1.0000000006e-05 40000 16000 1.0000000006e-05 40000 15800 0 
40000 15800.00001 1.0000000006e-05 40000 16400 0 40000 16399.99999 1.0000000006e-05 
40000 16200 1.0000000006e-05 40000 16600 0 40000 16599.99999 1.0000000006e-05 
40000 16400 1.0000000006e-05 40000 16800 0 40000 16799.99999 1.0000000006e-05 
40000 16600 1.0000000006e-05 40000 17000 0 40000 16999.99999 1.0000000006e-05 
40000 16800 1.0000000006e-05 40000 17400 0 40000 17600 0 
40000 17599.99999 1.0000000006e-05 40000 17400 1.0000000006e-05 40000 17200 0 
40000 17200.00001 1.0000000006e-05 40000 17800 0 40000 17799.99999 1.0000000006e-05 
40000 17600 1.0000000006e-05 40000 17200 1.0000000006e-05 40000 17000.00001 1.0000000006e-05 
40000 18000 0 40000 17999.99999 1.0000000006e-05 40000 17800 1.0000000006e-05 
40000 18200 0 40000 18199.99999 1.0000000006e-05 40000 18000 1.0000000006e-05 
40000 18400 0 40000 18399.99999 1.0000000006e-05 40000 18200 1.0000000006e-05 
40000 18600 0 40000 18599.99999 1.0000000006e-05 40000 18400 1.0000000006e-05 
40000 18800 0 40000 19000 1.0000000006e-05 40000 18800.00001 1.0000000006e-05 
40000 18800 1.0000000006e-05 40000 18600.00001 1.0000000006e-05 40000 15000 0 
40000 15200 0 40000 15199.99999 1.0000000006e-05 40000 15000 1.0000000006e-05 
40000 14800 0 40000 14800.00001 1.0000000006e-05 40000 15400 0 
40000 15399.99999 1.0000000006e-05 40000 15200 1.0000000006e-05 40000 14600 0 
40000 14800 1.0000000006e-05 40000 14600.00001 1.0000000006e-05 40000 14400 0 
40000 14600 1.0000000006e-05 40000 14400.00001 1.0000000006e-05 40000 14200 0 
40000 14400 1.0000000006e-05 40000 14200.00001 1.0000000006e-05 40000 15600 0 
40000 15599.99999 1.0000000006e-05 40000 15400 1.0000000006e-05 40000 15799.99999 1.0000000006e-05 
40000 15600 1.0000000006e-05 40000 12800 0 40000 13000 0 
40000 12999.99999 1.0000000006e-05 40000 12800 1.0000000006e-05 40000 12600 0 
40000 12600.00001 1.0000000006e-05 40000 13200 0 40000 13199.99999 1.0000000006e-05 
40000 13000 1.0000000006e-05 40000 13400 0 40000 13399.99999 1.0000000006e-05 
40000 13200 1.0000000006e-05 40000 13600 0 40000 13599.99999 1.0000000006e-05 
40000 13400 1.0000000006e-05 40000 13800 0 40000 13799.99999 1.0000000006e-05 
40000 13600 1.0000000006e-05 40000 14000 0 40000 14200 1.0000000006e-05 
40000 14000.00001 1.0000000006e-05 40000 14000 1.0000000006e-05 40000 13800.00001 1.0000000006e-05 
40000 11200 0 40000 11400 0 40000 11399.99999 1.0000000006e-05 
40000 11200 1.0000000006e-05 40000 11000 0 40000 11000.00001 1.0000000006e-05 
40000 11600 0 40000 11599.99999 1.0000000006e-05 40000 11400 1.0000000006e-05 
40000 11800 0 40000 11799.99999 1.0000000006e-05 40000 11600 1.0000000006e-05 
40000 12000 0 40000 11999.99999 1.0000000006e-05 40000 11800 1.0000000006e-05 
40000 12200 0 40000 12199.99999 1.0000000006e-05 40000 12000 1.0000000006e-05 
40000 12400 0 40000 12399.99999 1.0000000006e-05 40000 12200 1.0000000006e-05 
40000 12599.99999 1.0000000006e-05 40000 12400 1.0000000006e-05 40000 9600 0 
40000 9800 0 40000 9799.99999 1.0000000006e-05 40000 9600 1.0000000006e-05 
40000 9400 0 40000 9400.00001 1.0000000006e-05 40000 10000 0 
40000 9999.99999 1.0000000006e-05 40000 9800 1.0000000006e-05 40000 10200 0 
40000 10199.99999 1.0000000006e-05 40000 10000 1.0000000006e-05 40000 10400 0 
40000 10399.99999 1.0000000006e-05 40000 10200 1.0000000006e-05 40000 10600 0 
40000 10599.99999 1.0000000006e-05 40000 10400 1.0000000006e-05 40000 10800 0 
40000 11000 1.0000000006e-05 40000 10800.00001 1.0000000006e-05 40000 10800 1.0000000006e-05 
40000 10600.00001 1.0000000006e-05 40000 9200 0 40000 9400 1.0000000006e-05 
40000 9200.00001 1.0000000006e-05 40000 9000 0 40000 9200 1.0000000006e-05 
40000 9000.00001 1.0000000006e-05 40000 8800 0 40000 9000 1.0000000006e-05 
40000 8800.00001 1.0000000006e-05 40000 8600 0 40000 8800 1.0000000006e-05 
40000 8600.00001 1.0000000006e-05 40000 8400 0 40000 8600 1.0000000006e-05 
40000 8400.00001 1.0000000006e-05 40000 8200 0 40000 8400 1.0000000006e-05 
40000 8200.00001 1.0000000006e-05 40000 8000 0 40000 8200 1.0000000006e-05 
40000 8000.00001 1.0000000006e-05 40000 7800 0 40000 8000 1.0000000006e-05 
40000 7800.00001 1.0000000006e-05 40000 6400 0 40000 6600 0 
40000 6599.99999 1.0000000006e-05 40000 6400 1.0000000006e-05 40000 6200 0 
40000 6200.00001 1.0000000006e-05 40000 6800 0 40000 6799.99999 1.0000000006e-05 
40000 6600 1.0000000006e-05 40000 7000 0 40000 6999.99999 1.0000000006e-05 
40000 6800 1.0000000006e-05 40000 7200 0 40000 7199.99999 1.0000000006e-05 
40000 7000 1.0000000006e-05 40000 7400 0 40000 7399.99999 1.0000000006e-05 
40000 7200 1.0000000006e-05 40000 7600 0 40000 7599.99999 1.0000000006e-05 
40000 7400 1.0000000006e-05 40000 7799.99999 1.0000000006e-05 40000 7600 1.0000000006e-05 
40000 3200 0 40000 3400 0 40000 3399.99999 1.0000000006e-05 
40000 3200 1.0000000006e-05 40000 3000 0 40000 3000.00001 1.0000000006e-05 
40000 3600 0 40000 3599.99999 1.0000000006e-05 40000 3400 1.0000000006e-05 
40000 3800 0 40000 3799.99999 1.0000000006e-05 40000 3600 1.0000000006e-05 
40000 4000 0 40000 3999.99999 1.0000000006e-05 40000 3800 1.0000000006e-05 
40000 4200 0 40000 4199.99999 1.0000000006e-05 40000 4000 1.0000000006e-05 
40000 4600 0 40000 4800 0 40000 4799.99999 1.0000000006e-05 
40000 4600 1.0000000006e-05 40000 4400 0 40000 4400.00001 1.0000000006e-05 
40000 5000 0 40000 4999.99999 1.0000000006e-05 40000 4800 1.0000000006e-05 
40000 4400 1.0000000006e-05 40000 4200.00001 1.0000000006e-05 40000 5200 0 
40000 5199.99999 1.0000000006e-05 40000 5000 1.0000000006e-05 40000 5400 0 
40000 5399.99999 1.0000000006e-05 40000 5200 1.0000000006e-05 40000 5600 0 
40000 5599.99999 1.0000000006e-05 40000 5400 1.0000000006e-05 40000 5800 0 
40000 5799.99999 1.0000000006e-05 40000 5600 1.0000000006e-05 40000 6000 0 
40000 6200 1.0000000006e-05 40000 6000.00001 1.0000000006e-05 40000 6000 1.0000000006e-05 
40000 5800.00001 1.0000000006e-05 40000 2200 0 40000 2400 0 
40000 2399.99999 1.0000000006e-05 40000 2200 1.0000000006e-05 40000 2000 0 
40000 2000.00001 1.0000000006e-05 40000 2600 0 40000 2599.99999 1.0000000006e-05 
40000 2400 1.0000000006e-05 40000 1800 0 40000 2000 1.0000000006e-05 
40000 1800.00001 1.0000000006e-05 40000 1600 0 40000 1800 1.0000000006e-05 
40000 1600.00001 1.0000000006e-05 40000 1400 0 40000 1600 1.0000000006e-05 
40000 1400.00001 1.0000000006e-05 40000 2800 0 40000 2799.99999 1.0000000006e-05 
40000 2600 1.0000000006e-05 40000 2999.99999 1.0000000006e-05 40000 2800 1.0000000006e-05 
39800 0 0 40000 0 0 39999.99999 0 1.0000000006e-05 
39800 0 1.0000000006e-05 39600 0 0 39600.00001 0 1.0000000006e-05 
40000 200 0 40000 199.99999 1.0000000006e-05 40000 0 1.0000000006e-05 
40000 400 0 40000 399.99999 1.0000000006e-05 40000 200 1.0000000006e-05 
40000 600 0 40000 599.99999 1.0000000006e-05 40000 400 1.0000000006e-05 
39400 0 0 39600 0 1.0000000006e-05 39400.00001 0 1.0000000006e-05 
39200 0 0 39400 0 1.0000000006e-05 39200.00001 0 1.0000000006e-05 
39000 0 0 39200 0 1.0000000006e-05 39000.00001 0 1.0000000006e-05 
40000 800 0 40000 799.99999 1.0000000006e-05 40000 600 1.0000000006e-05 
40000 1000 0 40000 999.99999 1.0000000006e-05 40000 800 1.0000000006e-05 
40000 1200 0 40000 1400 1.0000000006e-05 40000 1200.00001 1.0000000006e-05 
[...]
CELL_DATA 81600
FIELD FieldData 1
Scalars_ 1 81600 float
8e-06 8e-06 8e-06 8e-06 8e-06 8e-06 8e-06 8e-06 8e-06 
8e-06 8e-06 8e-06 8e-06 8e-06 8e-06 8e-06 8e-06 8e-06 
8e-06 8e-06 8e-06 8e-06 8e-06 8e-06 8e-06 8e-06 8e-06 
8e-06 8e-06 8e-06 8e-06 8e-06 8e-06 8e-06 8e-06 8e-06 
8e-06 8e-06 8e-06 8e-06 8e-06 8e-06 8e-06 8e-06 8e-06 
8e-06 8e-06 8e-06 8e-06 8e-06 8e-06 8e-06 8e-06 8e-06 
8e-06 8e-06 8e-06 8e-06 8e-06 8e-06 8e-06 8e-06 8e-06 
8e-06 8e-06 8e-06 8e-06 8e-06 8e-06 8e-06 8e-06 8e-06 
8e-06 8e-06 8e-06 8e-06 8e-06 8e-06 8e-06 8e-06 8e-06 
8e-06 8e-06 8e-06 8e-06 8e-06 8e-06 8e-06 8e-06 8e-06 
8e-06 8e-06 8e-06 8e-06 8e-06 8e-06 8e-06 8e-06 8e-06 
8e-06 8e-06 8e-06 8e-06 8e-06 8e-06 8e-06 8e-06 8e-06 
8e-06 8e-06 8e-06 8e-06 8e-06 8e-06 8e-06 8e-06 8e-06 
8e-06 8e-06 8e-06 8e-06 8e-06 8e-06 8e-06 8e-06 8e-06 
8e-06 8e-06 8e-06 8e-06 8e-06 8e-06 8e-06 8e-06 8e-06 
8e-06 8e-06 8e-06 8e-06 8e-06 8e-06 8e-06 8e-06 8e-06 
8e-06 8e-06 8e-06 8e-06 8e-06 8e-06 8e-06 8e-06 8e-06 
8e-06 8e-06 8e-06 8e-06 8e-06 8e-06 8e-06 8e-06 8e-06 
8e-06 8e-06 8e-06 8e-06 8e-06 8e-06 8e-06 8e-06 8e-06 
8e-06 8e-06 8e-06 8e-06 8e-06 8e-06 8e-06 8e-06 8e-06 
8e-06 8e-06 8e-06 8e-06 8e-06 8e-06 8e-06 8e-06 8e-06 
8e-06 8e-06 8e-06 8e-06 8e-06 8e-06 8e-06 8e-06 8e-06 
8e-06 8e-06 8e-06 8e-06 8e-06 8e-06 8e-06 8e-06 8e-06 
8e-06 8e-06 8e-06 8e-06 8e-06 8e-06 8e-06 8e-06 8e-06 
8e-06 8e-06 8e-06 8e-06 8e-06 8e-06 8e-06 8e-06 8e-06 
8e-06 8e-06 8e-06 8e-06 8e-06 8e-06 8e-06 8e-06 8e-06 
8e-06 8e-06 8e-06 8e-06 8e-06 8e-06 8e-06 8e-06 8e-06 
8e-06 8e-06 8e-06 8e-06 8e-06 8e-06 8e-06 8e-06 8e-06 
8e-06 8e-06 8e-06 8e-06 8e-06 8e-06 8e-06 8e-06 8e-06 
8e-06 8e-06 8e-06 8e-06 8e-06 8e-06 8e-06 8e-06 8e-06 
8e-06 8e-06 8e-06 8e-06 8e-06 8e-06 8e-06 8e-06 8e-06 
8e-06 8e-06 8e-06 8e-06 8e-06 8e-06 8e-06 8e-06 8e-06 
8e-06 8e-06 8e-06 8e-06 8e-06 8e-06 8e-06 8e-06 8e-06 
8e-06 8e-06 8e-06 8e-06 8e-06 8e-06 8e-06 8e-06 8e-06 
8e-06 8e-06 8e-06 8e-06 8e-06 8e-06 8e-06 8e-06 8e-06 
8e-06 8e-06 8e-06 8e-06 8e-06 8e-06 8e-06 8e-06 8e-06 
8e-06 8e-06 8e-06 8e-06 8e-06 8e-06 8e-06 8e-06 8e-06 
8e-06 8e-06 8e-06 8e-06 8e-06 8e-06 8e-06 8e-06 8e-06 
8e-06 8e-06 8e-06 8e-06 8e-06 8e-06 8e-06 8e-06 8e-06 
8e-06 8e-06 8e-06 8e-06 8e-06 8e-06 8e-06 8e-06 8e-06 
8e-06 8e-06 8e-06 8e-06 8e-06 8e-06 8e-06 8e-06 8e-06 
8e-06 8e-06 8e-06 8e-06 8e-06 8e-06 8e-06 8e-06 8e-06 
8e-06 8e-06 8e-06 8e-06 8e-06 8e-06 8e-06 8e-06 8e-06 
8e-06 8e-06 8e-06 8e-06 8e-06 8e-06 8e-06 8e-06 8e-06 
8e-06 8e-06 8e-06 8e-06 8e-06 8e-06 8e-06 8e-06 8e-06 
8e-06 8e-06 8e-06 8e-06 8e-06 8e-06 8e-06 8e-06 8e-06 
8e-06 8e-06 8e-06 8e-06 8e-06 8e-06 8e-06 8e-06 8e-06 
8e-06 8e-06 8e-06 8e-06 8e-06 8e-06 8e-06 8e-06 8e-06 
8e-06 8e-06 8e-06 8e-06 8e-06 8e-06 8e-06 8e-06 8e-06 
8e-06 8e-06 8e-06 8e-06 8e-06 8e-06 8e-06 8e-06 8e-06 
8e-06 8e-06 8e-06 8e-06 8e-06 8e-06 8e-06 8e-06 8e-06 
8e-06 8e-06 8e-06 8e-06 8e-06 8e-06 8e-06 8e-06 8e-06 
8e-06 8e-06 8e-06 8e-06 8e-06 8e-06 8e-06 8e-06 8e-06 
8e-06 8e-06 8e-06 8e-06 8e-06 8e-06 8e-06 8e-06 8e-06 
8e-06 8e-06 8e-06 8e-06 8e-06 8e-06 8e-06 8e-06 8e-06 
8e-06 8e-06 8e-06 8e-06 8e-06 8e-06 8e-06 8e-06 8e-06 
8e-06 8e-06 8e-06 8e-06 8e-06 8e-06 8e-06 8e-06 8e-06 
8e-06 8e-06 8e-06 8e-06 8e-06 8e-06 8e-06 8e-06 8e-06 
8e-06 8e-06 8e-06 8e-06 8e-06 8e-06 8e-06 8e-06 8e-06 
8e-06 8e-06 8e-06 8e-06 8e-06 8e-06 8e-06 8e-06 8e-06 
8e-06 8e-06 8e-06 8e-06 8e-06 8e-06 8e-06 8e-06 8e-06 
8e-06 8e-06 8e-06 8e-06 8e-06 8e-06 8e-06 8e-06 8e-06 
8e-06 8e-06 8e-06 8e-06 8e-06 8e-06 8e-06 8e-06 8e-06 
8e-06 8e-06 8e-06 8e-06 8e-06 8e-06 8e-06 8e-06 8e-06 
8e-06 8e-06 8e-06 8e-06 8e-06 8e-06 8e-06 8e-06 8e-06 
8e-06 8e-06 8e-06 8e-06 8e-06 8e-06 8e-06 8e-06 8e-06 
8e-06 8e-06 8e-06 8e-06 8e-06 8e-06 8e-06 8e-06 8e-06 
8e-06 8e-06 8e-06 8e-06 8e-06 8e-06 8e-06 8e-06 8e-06 
8e-06 8e-06 8e-06 8e-06 8e-06 8e-06 8e-06 8e-06 8e-06 
8e-06 8e-06 8e-06 8e-06 8e-06 8e-06 8e-06 8e-06 8e-06 
8e-06 8e-06 8e-06 8e-06 8e-06 8e-06 8e-06 8e-06 8e-06 
8e-06 8e-06 8e-06 8e-06 8e-06 8e-06 8e-06 8e-06 8e-06 
8e-06 8e-06 8e-06 8e-06 8e-06 8e-06 8e-06 8e-06 8e-06 
8e-06 8e-06 8e-06 8e-06 8e-06 8e-06 8e-06 8e-06 8e-06 
8e-06 8e-06 8e-06 8e-06 8e-06 8e-06 8e-06 8e-06 8e-06 
8e-06 8e-06 8e-06 8e-06 8e-06 8e-06 8e-06 8e-06 8e-06 
8e-06 8e-06 8e-06 8e-06 8e-06 8e-06 8e-06 8e-06 8e-06 
8e-06 8e-06 8e-06 8e-06 8e-06 8e-06 8e-06 8e-06 8e-06 
8e-06 8e-06 8e-06 8e-06 8e-06 8e-06 8e-06 8e-06 8e-06 
8e-06 8e-06 8e-06 8e-06 8e-06 8e-06 8e-06 8e-06 8e-06 
8e-06 8e-06 8e-06 8e-06 8e-06 8e-06 8e-06 8e-06 8e-06 
8e-06 8e-06 8e-06 8e-06 8e-06 8e-06 8e-06 8e-06 8e-06 
8e-06 8e-06 8e-06 8e-06 8e-06 8e-06 8e-06 8e-06 8e-06 
8e-06 8e-06 8e-06 8e-06 8e-06 8e-06 8e-06 8e-06 8e-06 
8e-06 8e-06 8e-06 8e-06 8e-06 8e-06 8e-06 8e-06 8e-06 
8e-06 8e-06 8e-06 8e-06 8e-06 8e-06 8e-06 8e-06 8e-06 
8e-06 8e-06 8e-06 8e-06 8e-06 8e-06 8e-06 8e-06 8e-06 
8e-06 8e-06 8e-06 8e-06 8e-06 8e-06 8e-06 8e-06 8e-06 
8e-06 8e-06 8e-06 8e-06 8e-06 8e-06 8e-06 8e-06 8e-06 
8e-06 8e-06 8e-06 8e-06 8e-06 8e-06 8e-06 8e-06 8e-06 
8e-06 8e-06 8e-06 8e-06 8e-06 8e-06 8e-06 8e-06 8e-06 
8e-06 8e-06 8e-06 8e-06 8e-06 8e-06 8e-06 8e-06 8e-06 
8e-06 8e-06 8e-06 8e-06 8e-06 8e-06 8e-06 8e-06 8e-06 
8e-06 8e-06 8e-06 8e-06 8e-06 8e-06 8e-06 8e-06 8e-06 
8e-06 8e-06 8e-06 8e-06 8e-06 8e-06 8e-06 8e-06 8e-06 
8e-06 8e-06 8e-06 8e-06 8e-06 8e-06 8e-06 8e-06 8e-06 
8e-06 8e-06 8e-06 8e-06 8e-06 8e-06 8e-06 8e-06 8e-06 
8e-06 8e-06 8e-06 8e-06 8e-06 8e-06 8e-06 8e-06 8e-06 
8e-06 8e-06 8e-06 8e-06 8e-06 8e-06 8e-06 8e-06 8e-06 
8e-06 8e-06 8e-06 8e-06 8e-06 8e-06 8e-06 8e-06 8e-06 
8e-06 8e-06 8e-06 8e-06 8e-06 8e-06 8e-06 8e-06 8e-06 
8e-06 8e-06 8e-06 8e-06 8e-06 8e-06 8e-06 8e-06 8e-06 
8e-06 8e-06 8e-06 8e-06 8e-06 8e-06 8e-06 8e-06 8e-06 
8e-06 8e-06 8e-06 8e-06 8e-06 8e-06 8e-06 8e-06 8e-06 
8e-06 8e-06 8e-06 8e-06 8e-06 8e-06 8e-06 8e-06 8e-06 
8e-06 8e-06 8e-06 8e-06 8e-06 8e-06 8e-06 8e-06 8e-06 
8e-06 8e-06 8e-06 8e-06 8e-06 8e-06 8e-06 8e-06 8e-06 
8e-06 8e-06 8e-06 8e-06 8e-06 8e-06 8e-06 8e-06 8e-06 
8e-06 8e-06 8e-06 8e-06 8e-06 8e-06 8e-06 8e-06 8e-06 
8e-06 8e-06 8e-06 8e-06 8e-06 8e-06 8e-06 8e-06 8e-06 
8e-06 8e-06 8e-06 8e-06 8e-06 8e-06 8e-06 8e-06 8e-06 
8e-06 8e-06 8e-06 8e-06 8e-06 8e-06 8e-06 8e-06 8e-06 
8e-06 8e-06 8e-06 8e-06 8e-06 8e-06 8e-06 8e-06 8e-06 
8e-06 8e-06 8e-06 8e-06 8e-06 8e-06 8e-06 8e-06 8e-06 
8e-06 8e-06 8e-06 8e-06 8e-06 8e-06 8e-06 8e-06 8e-06 
8e-06 8e-06 8e-06 8e-06 8e-06 8e-06 8e-06 8e-06 8e-06 
8e-06 8e-06 8e-06 8e-06 8e-06 8e-06 8e-06 8e-06 8e-06 
8e-06 8e-06 8e-06 8e-06 8e-06 8e-06 8e-06 8e-06 8e-06 
8e-06 8e-06 8e-06 8e-06 8e-06 8e-06 8e-06 8e-06 8e-06 
8e-06 8e-06 8e-06 8e-06 8e-06 8e-06 8e-06 8e-06 8e-06 
8e-06 8e-06 8e-06 8e-06 8e-06 8e-06 8e-06 8e-06 8e-06 
8e-06 8e-06 8e-06 8e-06 8e-06 8e-06 8e-06 8e-06 8e-06 
8e-06 8e-06 8e-06 8e-06 8e-06 8e-06 8e-06 8e-06 8e-06 
8e-06 8e-06 8e-06 8e-06 8e-06 8e-06 8e-06 8e-06 8e-06 
8e-06 8e-06 8e-06 8e-06 8e-06 8e-06 8e-06 8e-06 8e-06 
8e-06 8e-06 8e-06 8e-06 8e-06 8e-06 8e-06 8e-06 8e-06 
8e-06 8e-06 8e-06 8e-06 8e-06 8e-06 8e-06 8e-06 8e-06 
8e-06 8e-06 8e-06 8e-06 8e-06 8e-06 8e-06 8e-06 8e-06 
8e-06 8e-06 8e-06 8e-06 8e-06 8e-06 8e-06 8e-06 8e-06 
8e-06 8e-06 8e-06 8e-06 8e-06 8e-06 8e-06 8e-06 8e-06 
8e-06 8e-06 8e-06 8e-06 8e-06 8e-06 8e-06 8e-06 8e-06 
8e-06 8e-06 8e-06 8e-06 8e-06 8e-06 8e-06 8e-06 8e-06 
8e-06 8e-06 8e-06 8e-06 8e-06 8e-06 8e-06 8e-06 8e-06 
8e-06 8e-06 8e-06 8e-06 8e-06 8e-06 8e-06 8e-06 8e-06 
8e-06 8e-06 8e-06 8e-06 8e-06 8e-06 8e-06 8e-06 8e-06 
8e-06 8e-06 8e-06 8e-06 8e-06 8e-06 8e-06 8e-06 8e-06 
8e-06 8e-06 8e-06 8e-06 8e-06 8e-06 8e-06 8e-06 8e-06 
8e-06 8e-06 8e-06 8e-06 8e-06 8e-06 8e-06 8e-06 8e-06 
8e-06 8e-06 8e-06 8e-06 8e-06 8e-06 8e-06 8e-06 8e-06 
8e-06 8e-06 8e-06 8e-06 8e-06 8e-06 8e-06 8e-06 8e-06 
8e-06 8e-06 8e-06 8e-06 8e-06 8e-06 8e-06 8e-06 8e-06 
8e-06 8e-06 8e-06 8e-06 8e-06 8e-06 8e-06 8e-06 8e-06 
8e-06 8e-06 8e-06 8e-06 8e-06 8e-06 8e-06 8e-06 8e-06 
8e-06 8e-06 8e-06 8e-06 8e-06 8e-06 8e-06 8e-06 8e-06 
8e-06 8e-06 8e-06 8e-06 8e-06 8e-06 8e-06 8e-06 8e-06 
8e-06 8e-06 8e-06 8e-06 8e-06 8e-06 8e-06 8e-06 8e-06 
8e-06 8e-06 8e-06 8e-06 8e-06 8e-06 8e-06 8e-06 8e-06 
8e-06 8e-06 8e-06 8e-06 8e-06 8e-06 8e-06 8e-06 8e-06 
8e-06 8e-06 8e-06 8e-06 8e-06 8e-06 8e-06 8e-06 8e-06 
8e-06 8e-06 8e-06 8e-06 8e-06 8e-06 8e-06 8e-06 8e-06 
8e-06 8e-06 8e-06 8e-06 8e-06 8e-06 8e-06 8e-06 8e-06 
8e-06 8e-06 8e-06 8e-06 8e-06 8e-06 8e-06 8e-06 8e-06 
8e-06 8e-06 8e-06 8e-06 8e-06 8e-06 8e-06 8e-06 8e-06 
8e-06 8e-06 8e-06 8e-06 8e-06 8e-06 8e-06 8e-06 8e-06 
8e-06 8e-06 8e-06 8e-06 8e-06 8e-06 8e-06 8e-06 8e-06 
8e-06 8e-06 8e-06 8e-06 8e-06 8e-06 8e-06 8e-06 8e-06 
8e-06 8e-06 8e-06 8e-06 8e-06 8e-06 8e-06 8e-06 8e-06 
8e-06 8e-06 8e-06 8e-06 8e-06 8e-06 8e-06 8e-06 8e-06 
8e-06 8e-06 8e-06 8e-06 8e-06 8e-06 8e-06 8e-06 8e-06 
8e-06 8e-06 8e-06 8e-06 8e-06 8e-06 8e-06 8e-06 8e-06 
8e-06 8e-06 8e-06 8e-06 8e-06 8e-06 8e-06 8e-06 8e-06 
8e-06 8e-06 8e-06 8e-06 8e-06 8e-06 8e-06 8e-06 8e-06 
8e-06 8e-06 8e-06 8e-06 8e-06 8e-06 8e-06 8e-06 8e-06 
8e-06 8e-06 8e-06 8e-06 8e-06 8e-06 8e-06 8e-06 8e-06 
8e-06 8e-06 8e-06 8e-06 8e-06 8e-06 8e-06 8e-06 8e-06 
8e-06 8e-06 8e-06 8e-06 8e-06 8e-06 8e-06 8e-06 8e-06 
8e-06 8e-06 8e-06 8e-06 8e-06 8e-06 8e-06 8e-06 8e-06 
8e-06 8e-06 8e-06 8e-06 8e-06 8e-06 8e-06 8e-06 8e-06 
8e-06 8e-06 8e-06 8e-06 8e-06 8e-06 8e-06 8e-06 8e-06 
8e-06 8e-06 8e-06 8e-06 8e-06 8e-06 8e-06 8e-06 8e-06 
8e-06 8e-06 8e-06 8e-06 8e-06 8e-06 8e-06 8e-06 8e-06 
8e-06 8e-06 8e-06 8e-06 8e-06 8e-06 8e-06 8e-06 8e-06 
8e-06 8e-06 8e-06 8e-06 8e-06 8e-06 8e-06 8e-06 8e-06 
8e-06 8e-06 8e-06 8e-06 8e-06 8e-06 8e-06 8e-06 8e-06 
8e-06 8e-06 8e-06 8e-06 8e-06 8e-06 8e-06 8e-06 8e-06 
8e-06 8e-06 8e-06 8e-06 8e-06 8e-06 8e-06 8e-06 8e-06 
8e-06 8e-06 8e-06 8e-06 8e-06 8e-06 8e-06 8e-06 8e-06 
8e-06 8e-06 8e-06 8e-06 8e-06 8e-06 8e-06 8e-06 8e-06 
8e-06 8e-06 8e-06 8e-06 8e-06 8e-06 8e-06 8e-06 8e-06 
8e-06 8e-06 8e-06 8e-06 8e-06 8e-06 8e-06 8e-06 8e-06 
8e-06 8e-06 8e-06 8e-06 8e-06 8e-06 8e-06 8e-06 8e-06 
8e-06 8e-06 8e-06 8e-06 8e-06 8e-06 8e-06 8e-06 8e-06 
8e-06 8e-06 8e-06 8e-06 8e-06 8e-06 8e-06 8e-06 8e-06 
8e-06 8e-06 8e-06 8e-06 8e-06 8e-06 8e-06 8e-06 8e-06 
8e-06 8e-06 8e-06 8e-06 8e-06 8e-06 8e-06 8e-06 8e-06 
8e-06 8e-06 8e-06 8e-06 8e-06 8e-06 8e-06 8e-06 8e-06 
8e-06 8e-06 8e-06 8e-06 8e-06 8e-06 8e-06 8e-06 8e-06 
8e-06 8e-06 8e-06 8e-06 8e-06 8e-06 8e-06 8e-06 8e-06 
8e-06 8e-06 8e-06 8e-06 8e-06 8e-06 8e-06 8e-06 8e-06 
8e-06 8e-06 8e-06 8e-06 8e-06 8e-06 8e-06 8e-06 8e-06 
8e-06 8e-06 8e-06 8e-06 8e-06 8e-06 8e-06 8e-06 8e-06 
8e-06 8e-06 8e-06 8e-06 8e-06 8e-06 8e-06 8e-06 8e-06 
8e-06 8e-06 8e-06 8e-06 8e-06 8e-06 8e-06 8e-06 8e-06 
8e-06 8e-06 8e-06 8e-06 8e-06 8e-06 8e-06 8e-06 8e-06 
8e-06 8e-06 8e-06 8e-06 8e-06 8e-06 8e-06 8e-06 8e-06 
8e-06 8e-06 8e-06 8e-06 8e-06 8e-06 8e-06 8e-06 8e-06 
8e-06 8e-06 8e-06 8e-06 8e-06 8e-06 8e-06 8e-06 8e-06 
8e-06 8e-06 8e-06 8e-06 8e-06 8e-06 8e-06 8e-06 8e-06 
8e-06 8e-06 8e-06 8e-06 8e-06 8e-06 8e-06 8e-06 8e-06 
8e-06 8e-06 8e-06 8e-06 8e-06 8e-06 8e-06 8e-06 8e-06 
8e-06 8e-06 8e-06 8e-06 8e-06 8e-06 8e-06 8e-06 8e-06 
8e-06 8e-06 8e-06 8e-06 8e-06 8e-06 8e-06 8e-06 8e-06 
8e-06 8e-06 8e-06 8e-06 8e-06 8e-06 8e-06 8e-06 8e-06 
8e-06 8e-06 8e-06 8e-06 8e-06 8e-06 8e-06 8e-06 8e-06 
8e-06 8e-06 8e-06 8e-06 8e-06 8e-06 8e-06 8e-06 8e-06 
8e-06 8e-06 8e-06 8e-06 8e-06 8e-06 8e-06 8e-06 8e-06 
8e-06 8e-06 8e-06 8e-06 8e-06 8e-06 8e-06 8e-06 8e-06 
8e-06 8e-06 8e-06 8e-06 8e-06 8e-06 8e-06 8e-06 8e-06 
8e-06 8e-06 8e-06 8e-06 8e-06 8e-06 8e-06 8e-06 8e-06 
8e-06 8e-06 8e-06 8e-06 8e-06 8e-06 8e-06 8e-06 8e-06 
8e-06 8e-06 8e-06 8e-06 8e-06 8e-06 8e-06 8e-06 8e-06 
8e-06 8e-06 8e-06 8e-06 8e-06 8e-06 8e-06 8e-06 8e-06 
8e-06 8e-06 8e-06 8e-06 8e-06 8e-06 8e-06 8e-06 8e-06 
8e-06 8e-06 8e-06 8e-06 8e-06 8e-06 8e-06 8e-06 8e-06 
8e-06 8e-06 8e-06 8e-06 8e-06 8e-06 8e-06 8e-06 8e-06 
8e-06 8e-06 8e-06 8e-06 8e-06 8e-06 8e-06 8e-06 8e-06 
8e-06 8e-06 8e-06 8e-06 8e-06 8e-06 8e-06 8e-06 8e-06 
8e-06 8e-06 8e-06 8e-06 8e-06 8e-06 8e-06 8e-06 8e-06 
8e-06 8e-06 8e-06 8e-06 8e-06 8e-06 8e-06 8e-06 8e-06 
8e-06 8e-06 8e-06 8e-06 8e-06 8e-06 8e-06 8e-06 8e-06 
8e-06 8e-06 8e-06 8e-06 8e-06 8e-06 8e-06 8e-06 8e-06 
8e-06 8e-06 8e-06 8e-06 8e-06 8e-06 8e-06 8e-06 8e-06 
8e-06 8e-06 8e-06 8e-06 8e-06 8e-06 8e-06 8e-06 8e-06 
8e-06 8e-06 8e-06 8e-06 8e-06 8e-06 8e-06 8e-06 8e-06 
8e-06 8e-06 8e-06 8e-06 8e-06 8e-06 8e-06 8e-06 8e-06 
8e-06 8e-06 8e-06 8e-06 8e-06 8e-06 8e-06 8e-06 8e-06 
8e-06 8e-06 8e-06 8e-06 8e-06 8e-06 8e-06 8e-06 8e-06 
8e-06 8e-06 8e-06 8e-06 8e-06 8e-06 8e-06 8e-06 8e-06 
8e-06 8e-06 8e-06 8e-06 8e-06 8e-06 8e-06 8e-06 8e-06 
8e-06 8e-06 8e-06 8e-06 8e-06 8e-06 8e-06 8e-06 8e-06 
8e-06 8e-06 8e-06 8e-06 8e-06 8e-06 8e-06 8e-06 8e-06 
8e-06 8e-06 8e-06 8e-06 8e-06 8e-06 8e-06 8e-06 8e-06 
8e-06 8e-06 8e-06 8e-06 8e-06 8e-06 8e-06 8e-06 8e-06 
8e-06 8e-06 8e-06 8e-06 8e-06 8e-06 8e-06 8e-06 8e-06 
8e-06 8e-06 8e-06 8e-06 8e-06 8e-06 8e-06 8e-06 8e-06 
8e-06 8e-06 8e-06 8e-06 8e-06 8e-06 8e-06 8e-06 8e-06 
8e-06 8e-06 8e-06 8e-06 8e-06 8e-06 8e-06 8e-06 8e-06 
8e-06 8e-06 8e-06 8e-06 8e-06 8e-06 8e-06 8e-06 8e-06 
8e-06 8e-06 8e-06 8e-06 8e-06 8e-06 8e-06 8e-06 8e-06 
8e-06 8e-06 8e-06 8e-06 8e-06 8e-06 8e-06 8e-06 8e-06 
8e-06 8e-06 8e-06 8e-06 8e-06 8e-06 8e-06 8e-06 8e-06 
8e-06 8e-06 8e-06 8e-06 8e-06 8e-06 8e-06 8e-06 8e-06 
8e-06 8e-06 8e-06 8e-06 8e-06 8e-06 8e-06 8e-06 8e-06 
8e-06 8e-06 8e-06 8e-06 8e-06 8e-06 8e-06 8e-06 8e-06 
8e-06 8e-06 8e-06 8e-06 8e-06 8e-06 8e-06 8e-06 8e-06 
8e-06 8e-06 8e-06 8e-06 8e-06 8e-06 8e-06 8e-06 8e-06 
8e-06 8e-06 8e-06 8e-06 8e-06 8e-06 8e-06 8e-06 8e-06 
8e-06 8e-06 8e-06 8e-06 8e-06 8e-06 8e-06 8e-06 8e-06 
8e-06 8e-06 8e-06 8e-06 8e-06 8e-06 8e-06 8e-06 8e-06 
8e-06 8e-06 8e-06 8e-06 8e-06 8e-06 8e-06 8e-06 8e-06 
8e-06 8e-06 8e-06 8e-06 8e-06 8e-06 8e-06 8e-06 8e-06 
8e-06 8e-06 8e-06 8e-06 8e-06 8e-06 8e-06 8e-06 8e-06 
8e-06 8e-06 8e-06 8e-06 8e-06 8e-06 8e-06 8e-06 8e-06 
8e-06 8e-06 8e-06 8e-06 8e-06 8e-06 8e-06 8e-06 8e-06 
8e-06 8e-06 8e-06 8e-06 8e-06 8e-06 8e-06 8e-06 8e-06 
8e-06 8e-06 8e-06 8e-06 8e-06 8e-06 8e-06 8e-06 8e-06 
8e-06 8e-06 8e-06 8e-06 8e-06 8e-06 8e-06 8e-06 8e-06 
8e-06 8e-06 8e-06 8e-06 8e-06 8e-06 8e-06 8e-06 8e-06 
8e-06 8e-06 8e-06 8e-06 8e-06 8e-06 8e-06 8e-06 8e-06 
8e-06 8e-06 8e-06 8e-06 8e-06 8e-06 8e-06 8e-06 8e-06 
8e-06 8e-06 8e-06 8e-06 8e-06 8e-06 8e-06 8e-06 8e-06 
8e-06 8e-06 8e-06 8e-06 8e-06 8e-06 8e-06 8e-06 8e-06 
8e-06 8e-06 8e-06 8e-06 8e-06 8e-06 8e-06 8e-06 8e-06 
8e-06 8e-06 8e-06 8e-06 8e-06 8e-06 8e-06 8e-06 8e-06 
8e-06 8e-06 8e-06 8e-06 8e-06 8e-06 8e-06 8e-06 8e-06 
8e-06 8e-06 8e-06 8e-06 8e-06 8e-06 8e-06 8e-06 8e-06 
8e-06 8e-06 8e-06 8e-06 8e-06 8e-06 8e-06 8e-06 8e-06 
8e-06 8e-06 8e-06 8e-06 8e-06 8e-06 8e-06 8e-06 8e-06 
8e-06 8e-06 8e-06 8e-06 8e-06 8e-06 8e-06 8e-06 8e-06 
8e-06 8e-06 8e-06 8e-06 8e-06 8e-06 8e-06 8e-06 8e-06 
8e-06 8e-06 8e-06 8e-06 8e-06 8e-06 8e-06 8e-06 8e-06 
8e-06 8e-06 8e-06 8e-06 8e-06 8e-06 8e-06 8e-06 8e-06 
8e-06 8e-06 8e-06 8e-06 8e-06 8e-06 8e-06 8e-06 8e-06 
8e-06 8e-06 8e-06 8e-06 8e-06 8e-06 8e-06 8e-06 8e-06 
8e-06 8e-06 8e-06 8e-06 8e-06 8e-06 8e-06 8e-06 8e-06 
8e-06 8e-06 8e-06 8e-06 8e-06 8e-06 8e-06 8e-06 8e-06 
8e-06 8e-06 8e-06 8e-06 8e-06 8e-06 8e-06 8e-06 8e-06 
8e-06 8e-06 8e-06 8e-06 8e-06 8e-06 8e-06 8e-06 8e-06 
8e-06 8e-06 8e-06 8e-06 8e-06 8e-06 8e-06 8e-06 8e-06 
8e-06 8e-06 8e-06 8e-06 8e-06 8e-06 8e-06 8e-06 8e-06 
8e-06 8e-06 8e-06 8e-06 8e-06 8e-06 8e-06 8e-06 8e-06 
8e-06 8e-06 8e-06 8e-06 8e-06 8e-06 8e-06 8e-06 8e-06 
8e-06 8e-06 8e-06 8e-06 8e-06 8e-06 8e-06 8e-06 8e-06 
8e-06 8e-06 8e-06 8e-06 8e-06 8e-06 8e-06 8e-06 8e-06 
8e-06 8e-06 8e-06 8e-06 8e-06 8e-06 8e-06 8e-06 8e-06 
8e-06 8e-06 8e-06 8e-06 8e-06 8e-06 8e-06 8e-06 8e-06 
8e-06 8e-06 8e-06 8e-06 8e-06 8e-06 8e-06 8e-06 8e-06 
8e-06 8e-06 8e-06 8e-06 8e-06 8e-06 8e-06 8e-06 8e-06 
8e-06 8e-06 8e-06 8e-06 8e-06 8e-06 8e-06 8e-06 8e-06 
8e-06 8e-06 8e-06 8e-06 8e-06 8e-06 8e-06 8e-06 8e-06 
8e-06 8e-06 8e-06 8e-06 8e-06 8e-06 8e-06 8e-06 8e-06 
8e-06 8e-06 8e-06 8e-06 8e-06 8e-06 8e-06 8e-06 8e-06 
8e-06 8e-06 8e-06 8e-06 8e-06 8e-06 8e-06 8e-06 8e-06 
8e-06 8e-06 8e-06 8e-06 8e-06 8e-06 8e-06 8e-06 8e-06 
8e-06 8e-06 8e-06 8e-06 8e-06 8e-06 8e-06 8e-06 8e-06 
8e-06 8e-06 8e-06 8e-06 8e-06 8e-06 8e-06 8e-06 8e-06 
8e-06 8e-06 8e-06 8e-06 8e-06 8e-06 8e-06 8e-06 8e-06 
8e-06 8e-06 8e-06 8e-06 8e-06 8e-06 8e-06 8e-06 8e-06 
8e-06 8e-06 8e-06 8e-06 8e-06 8e-06 8e-06 8e-06 8e-06 
8e-06 8e-06 8e-06 8e-06 8e-06 8e-06 8e-06 8e-06 8e-06 
8e-06 8e-06 8e-06 8e-06 8e-06 8e-06 8e-06 8e-06 8e-06 
8e-06 8e-06 8e-06 8e-06 8e-06 8e-06 8e-06 8e-06 8e-06 
8e-06 8e-06 8e-06 8e-06 8e-06 8e-06 8e-06 8e-06 8e-06 
8e-06 8e-06 8e-06 8e-06 8e-06 8e-06 8e-06 8e-06 8e-06 
8e-06 8e-06 8e-06 8e-06 8e-06 8e-06 8e-06 8e-06 8e-06 
8e-06 8e-06 8e-06 8e-06 8e-06 8e-06 8e-06 8e-06 8e-06 
8e-06 8e-06 8e-06 8e-06 8e-06 8e-06 8e-06 8e-06 8e-06 
8e-06 8e-06 8e-06 8e-06 8e-06 8e-06 8e-06 8e-06 8e-06 
8e-06 8e-06 8e-06 8e-06 8e-06 8e-06 8e-06 8e-06 8e-06 
8e-06 8e-06 8e-06 8e-06 8e-06 8e-06 8e-06 8e-06 8e-06 
8e-06 8e-06 8e-06 8e-06 8e-06 8e-06 8e-06 8e-06 8e-06 
8e-06 8e-06 8e-06 8e-06 8e-06 8e-06 8e-06 8e-06 8e-06 
8e-06 8e-06 8e-06 8e-06 8e-06 8e-06 8e-06 8e-06 8e-06 
8e-06 8e-06 8e-06 8e-06 8e-06 8e-06 8e-06 8e-06 8e-06 
8e-06 8e-06 8e-06 8e-06 8e-06 8e-06 8e-06 8e-06 8e-06 
8e-06 8e-06 8e-06 8e-06 8e-06 8e-06 8e-06 8e-06 8e-06 
8e-06 8e-06 8e-06 8e-06 8e-06 8e-06 8e-06 8e-06 8e-06 
8e-06 8e-06 8e-06 8e-06 8e-06 8e-06 8e-06 8e-06 8e-06 
8e-06 8e-06 8e-06 8e-06 8e-06 8e-06 8e-06 8e-06 8e-06 
8e-06 8e-06 8e-06 8e-06 8e-06 8e-06 8e-06 8e-06 8e-06 
8e-06 8e-06 8e-06 8e-06 8e-06 8e-06 8e-06 8e-06 8e-06 
8e-06 8e-06 8e-06 8e-06 8e-06 8e-06 8e-06 8e-06 8e-06 
8e-06 8e-06 8e-06 8e-06 8e-06 8e-06 8e-06 8e-06 8e-06 
8e-06 8e-06 8e-06 8e-06 8e-06 8e-06 8e-06 8e-06 8e-06 
8e-06 8e-06 8e-06 8e-06 8e-06 8e-06 8e-06 8e-06 8e-06 
8e-06 8e-06 8e-06 8e-06 8e-06 8e-06 8e-06 8e-06 8e-06 
8e-06 8e-06 8e-06 8e-06 8e-06 8e-06 8e-06 8e-06 8e-06 
8e-06 8e-06 8e-06 8e-06 8e-06 8e-06 8e-06 8e-06 8e-06 
8e-06 8e-06 8e-06 8e-06 8e-06 8e-06 8e-06 8e-06 8e-06 
8e-06 8e-06 8e-06 8e-06 8e-06 8e-06 8e-06 8e-06 8e-06 
8e-06 8e-06 8e-06 8e-06 8e-06 8e-06 8e-06 8e-06 8e-06 
8e-06 8e-06 8e-06 8e-06 8e-06 8e-06 8e-06 8e-06 8e-06 
8e-06 8e-06 8e-06 8e-06 8e-06 8e-06 8e-06 8e-06 8e-06 
8e-06 8e-06 8e-06 8e-06 8e-06 8e-06 8e-06 8e-06 8e-06 
8e-06 8e-06 8e-06 8e-06 8e-06 8e-06 8e-06 8e-06 8e-06 
8e-06 8e-06 8e-06 8e-06 8e-06 8e-06 8e-06 8e-06 8e-06 
8e-06 8e-06 8e-06 8e-06 8e-06 8e-06 8e-06 8e-06 8e-06 
8e-06 8e-06 8e-06 8e-06 8e-06 8e-06 8e-06 8e-06 8e-06 
8e-06 8e-06 8e-06 8e-06 8e-06 8e-06 8e-06 8e-06 8e-06 
8e-06 8e-06 8e-06 8e-06 8e-06 8e-06 8e-06 8e-06 8e-06 
8e-06 8e-06 8e-06 8e-06 8e-06 8e-06 8e-06 8e-06 8e-06 
8e-06 8e-06 8e-06 8e-06 8e-06 8e-06 8e-06 8e-06 8e-06 
8e-06 8e-06 8e-06 8e-06 8e-06 8e-06 8e-06 8e-06 8e-06 
8e-06 8e-06 8e-06 8e-06 8e-06 8e-06 8e-06 8e-06 8e-06 
8e-06 8e-06 8e-06 8e-06 8e-06 8e-06 8e-06 8e-06 8e-06 
8e-06 8e-06 8e-06 8e-06 8e-06 8e-06 8e-06 8e-06 8e-06 
8e-06 8e-06 8e-06 8e-06 8e-06 8e-06 8e-06 8e-06 8e-06 
8e-06 8e-06 8e-06 8e-06 8e-06 8e-06 8e-06 8e-06 8e-06 
8e-06 8e-06 8e-06 8e-06 8e-06 8e-06 8e-06 8e-06 8e-06 
8e-06 8e-06 8e-06 8e-06 8e-06 8e-06 8e-06 8e-06 8e-06 
8e-06 8e-06 8e-06 8e-06 8e-06 8e-06 8e-06 8e-06 8e-06 
8e-06 8e-06 8e-06 8e-06 8e-06 8e-06 8e-06 8e-06 8e-06 
8e-06 8e-06 8e-06 8e-06 8e-06 8e-06 8e-06 8e-06 8e-06 
8e-06 8e-06 8e-06 8e-06 8e-06 8e-06 8e-06 8e-06 8e-06 
8e-06 8e-06 8e-06 8e-06 8e-06 8e-06 8e-06 8e-06 8e-06 
8e-06 8e-06 8e-06 8e-06 8e-06 8e-06 8e-06 8e-06 8e-06 
8e-06 8e-06 8e-06 8e-06 8e-06 8e-06 8e-06 8e-06 8e-06 
8e-06 8e-06 8e-06 8e-06 8e-06 8e-06 8e-06 8e-06 8e-06 
8e-06 8e-06 8e-06 8e-06 8e-06 8e-06 8e-06 8e-06 8e-06 
8e-06 8e-06 8e-06 8e-06 8e-06 8e-06 8e-06 8e-06 8e-06 
8e-06 8e-06 8e-06 8e-06 8e-06 8e-06 8e-06 8e-06 8e-06 
8e-06 8e-06 8e-06 8e-06 8e-06 8e-06 8e-06 8e-06 8e-06 