# vtk DataFile Version 3.0
Tree
ASCII
DATASET POLYDATA
POINTS 1669 float
20000 40000 0
20200 39800 0
20400 39800 0
20600 39800 0
20600 39600 0
20800 39600 0
21000 39400 0
21200 39200 0
21400 39000 0
21600 38800 0
21800 38600 0
22000 38400 0
22200 38200 0
22200 38000 0
22200 37800 0
22400 37800 0
22600 37800 0
22800 37600 0
23000 37400 0
23000 37200 0
23200 37000 0
23200 36800 0
23400 36600 0
23600 36600 0
23800 36400 0
24000 36200 0
24000 36000 0
24000 35800 0
24200 35600 0
24400 35600 0
24400 35400 0
24400 35200 0
24600 35000 0
24800 34800 0
25000 34600 0
25200 34400 0
25400 34200 0
25400 34000 0
25600 34000 0
25800 34000 0
22300 37800 0
22200 37600 0
22200 37400 0
22200 37200 0
22000 37000 0
22000 36800 0
21800 36600 0
21600 36400 0
21400 36200 0
21200 36000 0
21000 36000 0
20800 36000 0
20600 35800 0
20400 35600 0
20200 35400 0
20000 35200 0
19800 35000 0
19600 35000 0
19400 35000 0
19200 34800 0
19000 34600 0
18800 34400 0
18600 34400 0
18400 34200 0
18200 34000 0
18000 33800 0
17800 33600 0
17600 33400 0
17400 33400 0
17400 33200 0
17200 33000 0
17000 32800 0
16800 32600 0
16600 32400 0
16400 32200 0
16200 32200 0
16000 32000 0
16000 31800 0
15800 31800 0
15600 31600 0
15400 31400 0
15200 31200 0
15000 31000 0
14800 30800 0
14600 30600 0
14400 30600 0
14200 30600 0
14000 30600 0
16500 32300 0
16600 32200 0
16800 32000 0
17000 31800 0
17000 31600 0
17000 31400 0
17200 31200 0
17400 31000 0
17600 30800 0
17800 30600 0
18000 30400 0
18200 30200 0
18400 30000 0
18600 29800 0
18800 29600 0
19000 29400 0
19200 29400 0
19400 29400 0
19400 29200 0
19400 29000 0
19600 28800 0
19800 28600 0
19800 28400 0
19800 28200 0
19800 28000 0
19800 27800 0
19800 27600 0
20000 27400 0
20200 27200 0
20400 27000 0
20600 26800 0
20600 26600 0
20800 26600 0
21000 26400 0
21200 26200 0
21400 26000 0
21400 25800 0
21600 25800 0
25700 34000 0
26000 33800 0
26200 33600 0
26400 33400 0
26600 33200 0
26800 33200 0
27000 33200 0
27200 33200 0
27400 33200 0
27400 33000 0
27600 32800 0
27800 32600 0
28000 32600 0
28200 32400 0
28400 32400 0
28600 32400 0
28800 32200 0
29000 32200 0
29200 32000 0
29400 31800 0
29600 31600 0
29800 31400 0
30000 31400 0
30200 31400 0
30400 31400 0
30600 31200 0
30800 31200 0
31000 31200 0
31200 31200 0
31400 31200 0
31600 31200 0
14100 30600 0
13800 30600 0
13600 30800 0
13600 31000 0
13600 31200 0
13600 31400 0
13400 31600 0
13400 31800 0
13400 32000 0
13200 32200 0
13000 32200 0
12800 32400 0
12600 32600 0
12400 32800 0
12200 33000 0
12000 33200 0
11800 33400 0
11600 33600 0
11400 33800 0
11200 34000 0
11000 34200 0
10800 34400 0
10600 34600 0
10400 34600 0
10400 34800 0
10200 34800 0
10000 35000 0
9800 35200 0
9600 35400 0
9400 35600 0
9200 35600 0
9000 35600 0
8800 35800 0
8600 35800 0
8400 36000 0
8200 36200 0
8000 36400 0
8000 36600 0
7800 36600 0
7600 36800 0
7400 37000 0
7200 37000 0
7000 37200 0
7000 37400 0
7000 37600 0
6800 37800 0
6600 37800 0
6400 38000 0
6200 38200 0
6000 38400 0
5800 38600 0
5600 38800 0
5400 38800 0
5400 39000 0
5200 39200 0
5000 39400 0
5000 39600 0
5000 39800 0
5000 40000 0
14050 30600 0
14000 30400 0
14000 30200 0
14000 30000 0
14000 29800 0
14000 29600 0
14000 29400 0
14000 29200 0
14000 29000 0
14000 28800 0
14000 28600 0
14000 28400 0
14000 28200 0
14000 28000 0
14000 27800 0
14000 27600 0
14000 27400 0
14000 27200 0
14000 27000 0
14000 26800 0
14000 26600 0
14000 26400 0
14000 26200 0
14000 26000 0
14000 25800 0
14000 25600 0
31500 31200 0
31600 31400 0
31600 31600 0
31800 31800 0
32000 32000 0
32200 32200 0
32400 32400 0
32600 32600 0
32800 32800 0
33000 33000 0
33200 33200 0
33200 33400 0
33400 33400 0
33600 33600 0
33800 33800 0
34000 34000 0
34200 34200 0
34400 34400 0
34600 34600 0
34800 34800 0
35000 34800 0
21500 25800 0
21800 25600 0
21800 25400 0
21800 25200 0
21800 25000 0
22000 24800 0
22200 24600 0
22400 24400 0
22600 24200 0
22800 24000 0
23000 23800 0
23200 23800 0
23200 23600 0
23400 23600 0
23400 23400 0
23600 23200 0
23800 23000 0
24000 22800 0
24200 22600 0
24400 22400 0
24600 22200 0
24800 22000 0
23500 23300 0
23400 23200 0
23200 23000 0
23000 23000 0
22800 22800 0
22600 22600 0
22400 22400 0
22200 22200 0
22000 22000 0
21800 21800 0
21600 21600 0
21400 21400 0
21200 21200 0
21000 21200 0
20800 21200 0
20600 21200 0
20400 21200 0
20200 21200 0
8500 35900 0
8400 35800 0
8200 35600 0
8000 35600 0
8000 35400 0
7800 35200 0
7600 35000 0
7400 34800 0
7400 34600 0
7200 34400 0
7000 34200 0
6800 34000 0
6600 33800 0
6400 33800 0
6400 33600 0
6400 33400 0
6200 33200 0
6000 33000 0
5800 32800 0
5600 32600 0
5400 32400 0
5200 32200 0
5200 32000 0
5000 31800 0
4800 31600 0
4600 31400 0
4400 31200 0
4200 31200 0
4000 31000 0
3800 31000 0
3600 30800 0
3400 30600 0
14000 25700 0
13800 25600 0
13600 25600 0
13400 25400 0
13200 25200 0
13000 25000 0
12800 25000 0
12600 25000 0
12400 25000 0
12200 25000 0
12000 24800 0
11800 24600 0
11600 24400 0
11400 24200 0
11200 24000 0
11000 23800 0
10800 23800 0
10600 23800 0
10400 23800 0
10200 23800 0
10000 23800 0
34900 34800 0
35200 34800 0
35400 34600 0
35600 34600 0
35800 34600 0
36000 34600 0
36200 34600 0
36400 34400 0
36600 34200 0
36800 34200 0
37000 34200 0
37200 34200 0
37400 34200 0
37600 34200 0
37800 34200 0
38000 34200 0
38200 34200 0
38400 34200 0
20300 21200 0
20000 21200 0
19800 21200 0
19600 21000 0
19400 21000 0
19200 20800 0
19000 20600 0
18800 20600 0
18600 20600 0
18400 20600 0
18200 20600 0
18000 20600 0
17800 20600 0
17600 20600 0
17400 20600 0
17200 20600 0
17000 20600 0
16800 20600 0
16600 20600 0
38300 34200 0
38600 34400 0
38800 34600 0
38800 34800 0
38800 35000 0
38800 35200 0
39000 35400 0
39000 35600 0
39200 35800 0
39400 36000 0
39600 36200 0
39800 36400 0
39800 36600 0
40000 36800 0
40000 37000 0
40000 37200 0
40000 37400 0
40000 37600 0
40000 37800 0
40000 38000 0
40000 38000 1e-05
3500 30700 0
3600 30400 0
3800 30200 0
3800 30000 0
3800 29800 0
3800 29600 0
3800 29400 0
3800 29200 0
3800 29000 0
3800 28800 0
3800 28600 0
3800 28400 0
3800 28200 0
3800 28000 0
3800 27800 0
3800 27600 0
3800 27400 0
24700 22100 0
25000 21800 0
25200 21800 0
25400 21800 0
25600 21800 0
25800 21800 0
26000 21800 0
26200 21800 0
26400 21800 0
26600 21800 0
26800 21800 0
27000 21800 0
27200 21800 0
27400 21800 0
27600 21800 0
27800 21800 0
28000 21800 0
28200 21800 0
28400 21800 0
28600 21800 0
28800 21800 0
29000 21800 0
29200 21800 0
29400 21800 0
29600 21800 0
29800 21800 0
30000 21800 0
30200 21800 0
30400 21800 0
30600 21800 0
30800 21800 0
31000 21800 0
31200 21800 0
3450 30650 0
3200 30800 0
3000 31000 0
2800 31200 0
2600 31400 0
2400 31400 0
2200 31400 0
2000 31400 0
1800 31400 0
1600 31600 0
1400 31800 0
1200 31800 0
1000 31800 0
800 31800 0
600 31800 0
400 31800 0
200 31800 0
0 31800 0
0 31800 1e-05
31100 21800 0
31200 22000 0
31400 22200 0
31600 22400 0
31800 22400 0
32000 22400 0
32200 22400 0
32400 22400 0
32600 22600 0
32800 22600 0
33000 22600 0
33200 22800 0
33400 23000 0
33600 23000 0
33800 23200 0
34000 23400 0
34200 23600 0
34400 23600 0
34600 23600 0
34800 23800 0
35000 23800 0
35200 24000 0
35400 24200 0
35600 24400 0
35800 24600 0
18700 20600 0
18600 20400 0
18600 20200 0
18600 20000 0
18600 19800 0
18600 19600 0
18600 19400 0
18600 19200 0
18600 19000 0
18600 18800 0
18600 18600 0
18600 18400 0
18600 18200 0
18600 18000 0
18600 17800 0
18600 17600 0
35700 24500 0
36000 24800 0
36200 25000 0
36400 25200 0
36600 25400 0
36800 25600 0
36800 25800 0
37000 25800 0
37200 26000 0
37400 26200 0
37600 26400 0
37800 26400 0
38000 26400 0
38200 26400 0
10100 23800 0
10000 23600 0
10000 23400 0
10000 23200 0
10000 23000 0
10000 22800 0
10000 22600 0
10000 22400 0
10000 22200 0
10000 22000 0
10000 21800 0
10000 21600 0
10000 21400 0
10000 21200 0
10000 21000 0
10000 20800 0
10000 20600 0
10000 20400 0
10000 20200 0
10000 20000 0
10000 19800 0
10000 19600 0
3800 27500 0
3600 27400 0
3400 27200 0
3200 27000 0
3000 27000 0
2800 27000 0
2600 27000 0
2400 27000 0
2200 27000 0
2000 27000 0
1800 27000 0
1600 27000 0
1400 27000 0
1200 27000 0
18600 17700 0
18400 17400 0
18200 17400 0
18000 17400 0
17800 17400 0
17600 17400 0
17400 17400 0
17200 17400 0
17000 17400 0
16800 17400 0
16600 17400 0
16400 17400 0
16200 17400 0
16000 17400 0
15800 17400 0
15600 17400 0
30700 21800 0
30800 21600 0
30800 21400 0
30800 21200 0
30800 21000 0
30800 20800 0
30800 20600 0
30800 20400 0
30800 20200 0
30800 20000 0
30800 19800 0
30800 19600 0
10000 20700 0
9800 20600 0
9600 20600 0
9400 20600 0
9200 20600 0
9000 20600 0
8800 20600 0
8600 20600 0
8400 20600 0
8200 20600 0
8000 20600 0
7800 20600 0
7600 20600 0
7400 20600 0
7200 20600 0
7000 20600 0
15700 17400 0
15400 17400 0
15200 17400 0
15000 17400 0
14800 17400 0
14600 17400 0
14400 17400 0
14200 17400 0
14000 17400 0
13800 17400 0
13600 17400 0
13400 17400 0
13200 17400 0
3100 27000 0
3000 26800 0
3000 26600 0
3000 26400 0
3200 26200 0
3400 26000 0
3400 25800 0
3400 25600 0
3400 25400 0
3400 25200 0
3400 25000 0
3400 24800 0
3400 24600 0
3400 24400 0
3400 24200 0
3400 24000 0
3400 23800 0
3400 23600 0
3400 23400 0
3400 23200 0
3400 23000 0
25300 21800 0
25400 21600 0
25400 21400 0
25400 21200 0
25400 21000 0
25400 20800 0
25400 20600 0
25400 20400 0
25400 20200 0
25400 20000 0
25400 19800 0
25400 19600 0
25400 19400 0
25400 19200 0
25400 19000 0
25400 18800 0
25400 18600 0
25400 18400 0
25400 18200 0
25400 18000 0
25400 17800 0
25400 17600 0
25400 17400 0
25400 17200 0
25400 17000 0
25400 16800 0
25400 16600 0
18600 17650 0
18600 17400 0
18800 17200 0
19000 17000 0
19200 16800 0
19200 16600 0
19200 16400 0
19200 16200 0
19200 16000 0
19200 15800 0
19200 15600 0
19200 15400 0
19200 15200 0
38100 26400 0
38200 26200 0
38400 26000 0
38600 25800 0
38800 25600 0
39000 25400 0
39000 25200 0
39000 25000 0
39000 24800 0
39000 24600 0
39000 24400 0
39000 24200 0
39000 24000 0
39000 23800 0
39000 23600 0
30800 19700 0
31000 19600 0
31200 19400 0
31400 19200 0
31600 19200 0
31800 19200 0
32000 19200 0
32200 19200 0
32400 19200 0
32600 19200 0
32800 19200 0
33000 19200 0
[...]
CELL_DATA 1668
FIELD FieldData 4
LAT 1 1668 float
0.151504
0.258634
0.365764
0.472894
0.580024
0.731528
0.883032
1.03454
1.18604
1.33755
1.48905
1.64055
1.74768
1.85481
1.96194
2.06907
2.22058
2.37208
2.47921
2.63072
2.73785
2.88935
2.99648
3.14799
3.29949
3.40662
3.51375
3.66525
3.77238
3.87951
3.98664
4.13815
4.28965
4.44116
4.59266
4.74416
4.85129
4.95842
5.06555
1.90838
2.02815
2.13528
2.24241
2.39392
2.50105
2.65255
2.80406
2.95556
3.10707
3.21419
3.32132
3.47283
3.62433
3.77584
3.92734
4.07885
4.18598
4.29311
4.44461
4.59612
4.74762
4.85475
5.00625
5.15776
5.30926
5.46077
5.61227
5.7194
5.82653
5.97804
6.12954
6.28104
6.43255
6.58405
6.69118
6.84269
6.94982
7.05695
7.20845
7.35996
7.51146
7.66296
7.81447
7.96597
8.0731
8.18023
8.28736
6.5083
6.58405
6.73556
6.88706
6.99419
7.10132
7.25283
7.40433
7.55583
7.70734
7.85884
8.01035
8.16185
8.31336
8.46486
8.61637
8.7235
8.83063
8.93776
9.04488
9.19639
9.34789
9.45502
9.56215
9.66928
9.77641
9.88354
10.035
10.1866
10.3381
10.4896
10.5967
10.7038
10.8553
11.0068
11.1583
11.2655
11.3726
5.01199
5.20512
5.35662
5.50813
5.65963
5.76676
5.87389
5.98102
6.08815
6.19528
6.34679
6.49829
6.60542
6.75693
6.86406
6.97119
7.12269
7.22982
7.38132
7.53283
7.68433
7.83584
7.94297
8.0501
8.15723
8.30873
8.41586
8.52299
8.63012
8.73725
8.84438
8.2338
8.39449
8.546
8.65313
8.76026
8.86739
9.01889
9.12602
9.23315
9.38465
9.49178
9.64329
9.79479
9.9463
10.0978
10.2493
10.4008
10.5523
10.7038
10.8553
11.0068
11.1583
11.3098
11.417
11.5241
11.6312
11.7827
11.9342
12.0857
12.2372
12.3444
12.4515
12.603
12.7101
12.8616
13.0131
13.1647
13.2718
13.3789
13.5304
13.6819
13.789
13.9406
14.0477
14.1548
14.3063
14.4134
14.565
14.7165
14.868
15.0195
15.171
15.2781
15.3852
15.5367
15.6882
15.7954
15.9025
16.0096
8.26058
8.37101
8.47814
8.58527
8.6924
8.79953
8.90666
9.01379
9.12092
9.22805
9.33518
9.44231
9.54943
9.65656
9.76369
9.87082
9.97795
10.0851
10.1922
10.2993
10.4065
10.5136
10.6207
10.7279
10.835
10.9421
8.79082
8.91059
9.01772
9.16922
9.32073
9.47223
9.62374
9.77524
9.92675
10.0783
10.2298
10.3369
10.444
10.5955
10.747
10.8985
11.05
11.2015
11.353
11.5045
11.6117
11.319
11.5122
11.6193
11.7264
11.8335
11.9851
12.1366
12.2881
12.4396
12.5911
12.7426
12.8497
12.9568
13.064
13.1711
13.3226
13.4741
13.6256
13.7771
13.9286
14.0801
14.2316
13.2468
13.3226
13.4741
13.5812
13.7327
13.8842
14.0357
14.1873
14.3388
14.4903
14.6418
14.7933
14.9448
15.0519
15.159
15.2662
15.3733
15.4804
12.7859
12.8616
13.0131
13.1203
13.2274
13.3789
13.5304
13.6819
13.789
13.9406
14.0921
14.2436
14.3951
14.5022
14.6093
14.7165
14.868
15.0195
15.171
15.3225
15.474
15.6255
15.7326
15.8841
16.0356
16.1871
16.3386
16.4458
16.5973
16.7044
16.8559
17.0074
10.8886
11.0083
11.1155
11.267
11.4185
11.57
11.6771
11.7842
11.8914
11.9985
12.15
12.3015
12.453
12.6045
12.756
12.9075
13.0147
13.1218
13.2289
13.336
13.4432
11.5581
11.7188
11.8703
11.9774
12.0846
12.1917
12.2988
12.4503
12.6018
12.709
12.8161
12.9232
13.0304
13.1375
13.2446
13.3517
13.4589
13.566
15.4269
15.5876
15.6947
15.8462
15.9533
16.1048
16.2563
16.3635
16.4706
16.5777
16.6848
16.792
16.8991
17.0062
17.1134
17.2205
17.3276
17.4348
17.5419
13.5124
13.7056
13.8571
13.9642
14.0713
14.1785
14.33
14.4371
14.5886
14.7401
14.8916
15.0431
15.1502
15.3018
15.4089
15.516
15.6231
15.7303
15.8374
15.9445
15.9445
16.9317
17.101
17.2525
17.3597
17.4668
17.5739
17.6811
17.7882
17.8953
18.0025
18.1096
18.2167
18.3238
18.431
18.5381
18.6452
18.7524
14.1559
14.3831
14.4903
14.5974
14.7045
14.8116
14.9188
15.0259
15.133
15.2402
15.3473
15.4544
15.5616
15.6687
15.7758
15.8829
15.9901
16.0972
16.2043
16.3115
16.4186
16.5257
16.6329
16.74
16.8471
16.9542
17.0614
17.1685
17.2756
17.3828
17.4899
17.597
17.7042
16.9695
17.1257
17.2772
17.4287
17.5802
17.6873
17.7945
17.9016
18.0087
18.1602
18.3117
18.4189
18.526
18.6331
18.7403
18.8474
18.9545
19.0616
19.0616
17.6506
17.7704
17.9219
18.0734
18.1805
18.2876
18.3948
18.5019
18.6534
18.7605
18.8677
19.0192
19.1707
19.2778
19.4293
19.5808
19.7323
19.8394
19.9466
20.0981
20.2052
20.3567
20.5082
20.6597
20.8112
16.417
16.5368
16.6439
16.7511
16.8582
16.9653
17.0724
17.1796
17.2867
17.3938
17.501
17.6081
17.7152
17.8224
17.9295
18.0366
20.7355
20.9627
21.1142
21.2657
21.4172
21.5687
21.6759
21.783
21.9345
22.086
22.2375
22.3446
22.4518
22.5589
13.3896
13.5094
13.6165
13.7236
13.8308
13.9379
14.045
14.1522
14.2593
14.3664
14.4735
14.5807
14.6878
14.7949
14.9021
15.0092
15.1163
15.2235
15.3306
15.4377
15.5448
15.652
18.6988
18.8186
18.9701
19.1216
19.2287
19.3358
19.443
19.5501
19.6572
19.7644
19.8715
19.9786
20.0857
20.1929
17.983
18.1762
18.2833
18.3904
18.4976
18.6047
18.7118
18.819
18.9261
19.0332
19.1403
19.2475
19.3546
19.4617
19.5689
19.676
17.4363
17.5561
17.6632
17.7704
17.8775
17.9846
18.0918
18.1989
18.306
18.4131
18.5203
18.6274
15.0628
15.1825
15.2897
15.3968
15.5039
15.6111
15.7182
15.8253
15.9324
16.0396
16.1467
16.2538
16.361
16.4681
16.5752
16.6824
19.6224
19.7831
19.8903
19.9974
20.1045
20.2116
20.3188
20.4259
20.533
20.6402
20.7473
20.8544
20.9616
19.1751
19.2949
19.402
19.5092
19.6607
19.8122
19.9193
20.0264
20.1336
20.2407
20.3478
20.455
20.5621
20.6692
20.7764
20.8835
20.9906
21.0977
21.2049
21.312
21.4191
14.5438
14.6636
14.7707
14.8779
14.985
15.0921
15.1992
15.3064
15.4135
15.5206
15.6278
15.7349
15.842
15.9492
16.0563
16.1634
16.2705
16.3777
16.4848
16.5919
16.6991
16.8062
16.9133
17.0205
17.1276
17.2347
17.3418
18.0098
18.1437
18.2952
18.4467
18.5983
18.7054
18.8125
18.9196
19.0268
19.1339
19.241
19.3482
19.4553
22.5053
22.6251
22.7766
22.9281
23.0796
23.2311
23.3383
23.4454
23.5525
23.6596
23.7668
23.8739
23.981
24.0882
24.1953
18.5738
18.6936
18.8451
18.9966
19.1037
19.2109
19.318
19.4251
19.5323
19.6394
19.7465
19.8537
19.9608
20.0679
20.175
20.2822
20.3893
20.4964
20.6036
20.7107
17.2883
17.4081
17.5152
17.6223
17.7294
17.8809
18.0325
18.184
18.3355
18.4426
18.5497
16.6288
16.7486
16.9001
17.0072
17.1143
17.2215
17.3286
17.4357
17.5428
17.65
17.7571
17.8642
17.9714
18.0785
18.1856
18.2928
18.3999
18.507
19.2644
19.3842
19.4913
19.5985
19.7056
19.8127
19.9199
20.027
20.1341
20.2413
20.3484
20.4555
20.5626
20.6698
20.7769
20.884
24.1417
24.2615
24.413
24.5201
24.6273
24.7344
24.8415
24.9487
25.1002
25.2517
25.3588
20.6571
20.8178
20.9693
21.1208
21.2723
21.4238
21.531
21.6381
21.7452
21.8524
18.389
18.5088
18.6603
18.8118
18.9633
19.0704
19.2219
19.3291
19.4362
19.5433
19.6505
18.4962
18.6568
18.8084
18.9155
19.0226
19.1297
19.2369
19.3884
19.5399
19.647
19.7985
19.9056
19.4017
19.5949
19.702
19.8091
19.9162
20.0678
20.1749
20.3264
20.4779
20.585
20.7365
20.8437
20.9952
21.1467
21.2982
21.4053
21.5124
21.6196
20.9194
20.9952
21.1023
21.2538
21.4053
21.5568
21.7083
21.8598
21.9669
22.0741
21.7988
21.9595
22.0666
22.1738
22.3253
22.4768
22.5839
22.691
22.8425
22.9497
23.0568
23.1639
23.3154
20.908
21.0278
21.1349
21.242
21.3492
21.4563
21.6078
21.7593
21.9108
22.0179
22.1694
22.2766
22.3837
22.4908
22.5979
22.7051
22.8122
22.9193
23.0265
23.1336
23.2407
23.3479
23.455
23.5621
21.566
21.6858
21.8373
21.9444
22.0515
22.1587
22.2658
22.3729
22.48
22.6316
22.7831
22.9346
20.8305
20.9912
21.1427
21.2942
21.4013
21.5084
21.6156
21.7227
21.8298
21.937
22.0441
18.4534
18.6466
18.7981
18.9496
19.1011
19.2526
19.4041
19.5112
19.6184
19.7255
19.8326
19.9398
20.0469
20.154
23.5086
23.7017
23.8088
23.9159
24.0674
24.2189
24.3261
24.4332
24.5847
24.7362
24.8433
24.9505
21.3477
21.4675
21.5746
21.6818
21.7889
21.896
22.0032
22.1103
22.2174
22.3246
22.4317
22.5388
22.6459
22.7531
22.8602
21.998
22.1177
22.2249
22.332
22.4391
22.5463
22.6534
22.7605
22.8676
22.9748
23.2397
23.3154
23.4225
23.5741
23.7256
23.8771
23.9842
24.0913
24.1985
22.1202
22.24
22.3471
22.4542
22.6057
22.7572
22.8644
22.9715
23.0786
23.1857
23.2929
23.4
23.5071
22.0205
22.1403
22.2918
22.4433
22.5948
22.7019
22.8091
22.9162
23.0233
23.1304
23.2376
23.3447
23.4518
23.559
20.1004
20.2611
20.3683
20.4754
20.5825
20.6897
20.7968
20.9483
21.0554
21.1626
21.3141
21.4212
21.5283
21.6354
21.7426
21.8497
21.9568
22.064
22.1711
21.9905
22.1836
22.2908
22.3979
22.505
22.6122
22.7193
22.8264
22.9336
23.0407
23.1478
23.2549
24.1432
24.3126
24.4641
24.6156
24.7671
24.9186
25.0257
25.1772
25.2844
25.4359
25.543
25.6501
19.4577
19.5774
19.6846
19.8361
19.9432
20.0503
20.1575
20.2646
20.3717
20.4789
20.586
20.6931
20.8002
20.9074
21.0145
21.1216
21.2288
21.3359
21.443
22.9212
23.0819
23.189
23.2962
23.4033
23.5104
23.6619
23.7691
23.8762
23.9833
24.0905
24.1976
24.144
24.2638
24.3709
24.5224
24.6296
24.7367
24.8438
24.9509
25.0581
25.1652
25.2723
25.2188
25.4119
25.5634
25.6705
25.7777
25.8848
25.9919
26.0991
26.2062
26.3133
25.5966
25.7573
25.8644
25.9715
26.0786
26.1858
26.3373
26.4444
26.5515
26.6587
26.7658
26.8729
23.4536
23.6143
23.7214
23.8285
23.9357
24.0428
24.1499
24.257
24.3642
24.4713
24.5784
24.6856
24.7927
24.8998
25.007
25.1141
25.2212
25.3283
25.4355
25.5426
25.6497
25.7569
25.864
25.9711
21.3895
21.5826
21.7341
21.8856
21.9927
22.0999
22.2514
22.4029
22.51
22.6171
22.7243
22.8314
22.9385
23.0456
23.1528
23.2599
23.367
26.8194
26.9391
27.0463
27.1534
27.2605
27.3677
27.4748
27.5819
27.6891
27.7962
27.9033
28.0104
28.1176
28.2247
23.5054
23.6661
23.7732
23.8804
23.9875
24.0946
24.2017
24.3089
24.416
24.5231
24.6303
24.7374
24.8445
24.9516
25.0588
25.1659
25.273
25.3802
25.4873
25.5944
25.7016
25.8087
23.2014
23.3621
23.4692
23.5763
23.6835
23.7906
23.8977
24.0049
24.112
24.2191
24.3262
24.4334
24.5405
24.6476
24.7548
24.8619
24.969
25.0762
25.1833
25.2904
25.3975
25.5047
25.7551
25.8749
25.982
26.0892
26.2407
26.3478
26.4549
26.5621
26.6692
26.7763
26.8834
26.9906
27.0977
27.2048
27.312
23.3135
23.5066
23.6581
23.7652
23.8724
23.9795
24.0866
24.2381
24.3453
24.4524
24.5595
24.6666
24.7738
24.8809
24.988
25.0952
25.2023
25.9176
26.1107
26.2622
26.3693
26.5208
26.628
26.7351
26.8422
26.9937
27.1452
27.2524
27.3595
28.1711
28.3318
28.4833
28.6348
28.7863
28.8935
29.045
29.1965
29.348
29.4995
29.6066
26.8461
27.0176
27.1691
27.3207
27.4722
27.6237
27.7752
27.8823
27.9894
28.0966
28.2037
28.3552
28.5067
28.6138
28.7653
28.9168
29.0683
29.1755
25.7819
25.9158
26.0229
26.1745
26.2816
26.3887
26.5402
26.6473
26.7988
26.9504
27.1019
27.2534
27.4049
26.6815
26.8013
26.9084
27.0156
27.1671
27.2742
27.3813
27.5328
27.64
27.7471
27.8986
28.0501
28.2016
28.3531
28.5046
28.6117
28.7189
28.826
28.9331
29.0846
25.1487
25.3419
25.4934
25.6449
25.7964
25.9479
26.0994
26.2509
26.358
25.4511
25.6442
25.7514
25.8585
25.9656
26.0728
26.1799
26.287
26.3941
26.5013
26.6084
26.7155
26.8227
26.9298
27.0369
27.1441
27.2512
27.3583
27.4654
29.4237
29.5931
29.7446
29.8961
30.0033
30.1104
30.2619
30.369
30.4762
30.6277
30.7792
30.9307
31.0822
31.1893
31.2964
31.4036
30.5519
30.6277
30.7348
30.8419
30.9491
31.1006
31.2521
31.4036
31.5107
31.6178
31.7693
31.9208
32.028
32.1351
29.1219
29.315
29.4665
29.618
29.7695
29.921
30.0726
30.1797
30.3312
30.4827
30.5898
30.697
30.8485
31
31.1071
27.3291
27.4985
27.6056
27.7128
27.8199
27.927
28.0342
28.1413
28.2928
28.4443
28.5958
28.7473
28.8988
29.0059
29.1131
29.2202
28.8796
29.0727
29.1798
29.287
29.4385
29.59
29.7415
29.893
30.0001
30.1072
30.2587
30.4102
30.5174
30.6689
30.776
30.8831
31.0346
31.0346
32.0815
32.2013
32.3084
32.4156
32.5227
32.6298
32.737
32.8441
31.35
31.5107
31.6178
31.725
31.8321
31.9392
32.0463
32.1535
32.2606
32.3677
32.4749
32.582
32.6891
32.7963
27.4119
27.5317
27.6832
27.8347
27.9418
28.0933
28.2448
28.3963
28.5034
28.6549
28.8064
28.958
29.1095
29.261
29.3681
29.4752
29.5823
29.3145
29.4343
29.5858
29.7373
29.8444
29.9516
30.0587
30.1658
30.273
30.3801
30.4872
30.5943
30.7015
30.8086
30.9157
31.0229
32.7905
32.9512
33.1027
33.2098
33.317
33.4241
33.5756
33.7271
33.8342
33.7807
33.9738
34.1253
34.2768
34.3839
34.4911
34.4375
34.5982
34.7497
34.8568
34.964
35.0711
35.1782
35.2854
35.3925
35.4996
30.9693
31.0891
31.2406
31.3921
31.5436
31.6951
31.8022
31.9094
32.0609
32.2124
32.3639
32.471
32.5781
32.6853
32.8368
32.8368
0.205069
0.324844
0.476348
0.627853
0.734983
0.886487
1.03799
1.1895
1.29663
1.40376
3.39708
3.47283
3.57996
3.68709
3.79422
3.90135
4.00848
4.11561
4.22274
3.03131
3.2007
3.3522
3.50371
3.65521
3.80672
3.91385
4.02098
4.12811
10.1736
10.2493
10.4008
10.5079
10.6594
10.8109
10.9625
11.114
11.2655
11.3726
11.4797
11.6312
11.7384
11.8899
11.319
11.4388
11.5903
11.6974
11.8046
11.9117
12.0188
12.1703
12.2775
12.3846
12.4917
12.5988
3.82595
3.94572
4.09723
4.24873
4.35586
4.50737
4.65887
4.81037
4.96188
5.06901
5.22051
5.37202
5.52352
5.67503
5.82653
5.93366
6.04079
6.14792
6.25505
6.36218
6.30862
6.42839
6.53552
6.64265
6.74978
6.85691
6.96404
7.07117
12.5453
12.706
12.8575
12.9646
13.0717
13.2232
13.3748
13.5263
13.6778
13.8293
13.9808
14.1323
14.2394
14.3909
14.5424
14.6939
14.801
14.9082
14.9082
10.9311
11.0068
11.1583
11.3098
11.4613
11.6128
11.7644
11.9159
12.0674
12.2189
12.3704
12.4775
12.629
12.7805
12.8876
13.0391
13.1463
13.2534
7.30557
7.47496
7.62646
7.77797
7.92947
8.0366
13.1998
13.393
13.5001
13.6072
13.7587
13.8659
14.0163
14.0921
14.2436
14.3507
14.4578
14.565
14.7165
7.8894
8.00918
8.16068
8.31219
8.46369
8.57082
8.72232
8.87383
9.02533
9.17684
9.28397
9.3911
9.49823
9.95929
10.035
10.1422
10.2493
10.4008
10.5523
10.6594
10.8109
10.9181
11.0252
11.1323
11.2838
METADATA
INFORMATION 0

diameter 1 1668 float
60
60
60
60
60
60
60
60
60
60
60
60
60
60
60
60
60
60
60
60
60
60
60
60
60
60
60
60
60
60
60
60
60
60
60
60
60
60
60
60
60
60
60
60
60
60
60
60
60
60
60
60
60
60
60
60
60
60
60
60
60
60
60
60
60
60
60
60
60
60
60
60
60
60
60
60
60
60
60
60
60
60
60
60
60
60
60
60
60
60
60
60
60
60
60
60
60
60
60
60
60
60
60
60
60
60
60
60
60
60
60
60
60
60
60
60
60
60
60
60
60
60
60
60
60
60
60
60
60
60
60
60
60
60
60
60
60
60
60
60
60
60
60
60
60
60
60
60
60
60
60
60
60
60
60
60
60
60
60
60
60
60
60
60
60
60
60
60
60
60
60
60
60
60
60
60
60
60
60
60
60
60
60
60
60
60
60
60
60
60
60
60
60
60
60
60
60
60
60
60
60
60
60
60
60
60
60
60
60
60
60
60
60
60
60
60
60
60
60
60
60
60
60
60
60
60
60
60
60
60
60
60
60
60
60
60
60
60
60
60
60
60
60
60
60
60
60
60
60
60
60
60
60
60
60
60
60
60
60
60
60
60
60
60
60
60
60
60
60
60
60
60
60
60
60
60
60
60
60
60
60
60
60
60
60
60
60
60
60
60
60
60
60
60
60
60
60
60
60
60
60
60
60
60
60
60
60
60
60
60
60
60
60
60
60
60
60
60
60
60
60
60
60
60
60
60
60
60
60
60
60
60
60
60
60
60
60
60
60
60
60
60
60
60
60
60
60
60
60
60
60
60
60
60
60
60
60
60
60
60
60
60
60
60
60
60
60
60
60
60
60
60
60
60
60
60
60
60
60
60
60
60
60
60
60
60
60
60
60
60
60
60
60
60
60
60
60
60
60
60
60
60
60
60
60
60
60
60
60
60
60
60
60
60
60
60
60
60
60
60
60
60
60
60
60
60
60
60
60
60
60
60
60
60
60
60
60
60
60
60
60
60
60
60
60
60
60
60
60
60
60
60
60
60
60
60
60
60
60
60
60
60
60
60
60
60
60
60
60
60
60
60
60
60
60
60
60
60
60
60
60
60
60
60
60
60
60
60
60
60
60
60
60
60
60
60
60
60
60
60
60
60
60
60
60
60
60
60
60
60
60
60
60
60
60
60
60
60
60
60
60
60
60
60
60
60
60
60
60
60
60
60
60
60
60
60
60
60
60
60
60
60
60
60
60
60
60
60
60
60
60
60
60
60
60
60
60
60
60
60
60
60
60
60
60
60
60
60
60
60
60
60
60
60
60
60
60
60
60
60
60
60
60
60
60
60
60
60
60
60
60
60
60
60
60
60
60
60
60
60
60
60
60
60
60
60
60
60
60
60
60
60
60
60
60
60
60
60
60
60
60
60
60
60
60
60
60
60
60
60
60
60
60
60
60
60
60
60
60
60
60
60
60
60
60
60
60
60
60
60
60
60
60
60
60
60
60
60
60
60
60
60
60
60
60
60
60
60
60
60
60
60
60
60
60
60
60
60
60
60
60
60
60
60
60
60
60
60
60
60
60
60
60
60
60
60
60
60
60
60
60
60
60
60
60
60
60
60
60
60
60
60
60
60
60
60
60
60
60
60
60
60
60
60
60
60
60
60
60
60
60
60
60
60
60
60
60
60
60
60
60
60
60
60
60
60
60
60
60
60
60
60
60
60
60
60
60
60
60
60
60
60
60
60
60
60
60
60
60
60
60
60
60
60
60
60
60
60
60
60
60
60
60
60
60
60
60
60
60
60
60
60
60
60
60
60
60
60
60
60
60
60
60
60
60
60
60
60
60
60
60
60
60
60
60
60
60
60
60
60
60
60
60
60
60
60
60
60
60
60
60
60
60
60
60
60
60
60
60
60
60
60
60
60
60
60
60
60
60
60
60
60
60
60
60
60
60
60
60
60
60
60
60
60
60
60
60
60
60
60
60
60
60
60
60
60
60
60
60
60
60
60
60
60
60
60
60
60
60
60
60
60
60
60
60
60
60
60
60
60
60
60
60
60
60
60
60
60
60
60
60
60
60
60
60
60
60
60
60
60
60
60
60
60
60
60
60
60
60
60
60
60
60
60
60
60
60
60
60
60
60
60
60
60
60
60
60
60
60
60
60
60
60
60
60
60
60
60
60
60
60
60
60
60
60
60
60
60
60
60
60
60
60
60
60
60
60
60
60
60
60
60
60
60
60
60
60
60
60
60
60
60
60
60
60
60
60
60
60
60
60
60
60
60
60
60
60
60
60
60
60
60
60
60
60
60
60
60
60
60
60
60
60
60
60
60
60
60
60
60
60
60
60
60
60
60
60
60
60
60
60
60
60
60
60
60
60
60
60
60
60
60
60
60
60
60
60
60
60
60
60
60
60
60
60
60
60
60
60
60
60
60
60
60
60
60
60
60
60
60
60
60
60
60
60
60
60
60
60
60
60
60
60
60
60
60
60
60
60
60
60
60
60
60
60
60
60
60
60
60
60
60
60
60
60
60
60
60
60
60
60
60
60
60
60
60
60
60
60
60
60
60
60
60
60
60
60
60
60
60
60
60
60
60
60
60
60
60
60
60
60
60
60
60
60
60
60
60
60
60
60
60
60
60
60
60
60
60
60
60
60
60
60
60
60
60
60
60
60
60
60
60
60
60
60
60
60
60
60
60
60
60
60
60
60
60
60
60
60
60
60
60
60
60
60
60
60
60
60
60
60
60
60
60
60
60
60
60
60
60
60
60
60
60
60
60
60
60
60
60
60
60
60
60
60
60
60
60
60
60
60
60
60
60
60
60
60
60
60
60
60
60
60
60
60
60
60
60
60
60
60
60
60
60
60
60
60
60
60
60
60
60
60
60
60
60
60
60
60
60
60
60
60
60
60
60
60
60
60
60
60
60
60
60
60
60
60
60
60
60
60
60
60
60
60
60
60
60
60
60
60
60
60
60
60
60
60
60
60
60
60
60
60
60
60
60
60
60
60
60
60
60
60
60
60
60
60
60
60
60
60
60
60
60
60
60
60
60
60
60
60
60
60
60
60
60
60
60
60
60
60
60
60
60
60
60
60
60
60
60
60
60
60
60
60
60
60
60
60
60
60
60
60
60
60
60
60
60
60
60
60
60
60
60
60
60
60
60
60
60
60
60
60
60
60
60
60
60
60
60
60
60
60
60
60
60
60
60
60
60
60
60
60
60
60
60
60
60
60
60
60
60
60
60
60
60
60
60
60
60
60
60
60
60
60
60
60
60
60
60
60
60
60
60
60
60
60
60
60
60
60
60
60
60
60
60
60
60
60
60
60
60
60
60
60
60
60
60
60
60
60
60
60
60
60
60
60
60
60
60
60
60
60
60
60
60
60
60
60
60
60
60
60
60
60
60
60
60
60
60
60
60
60
60
60
60
60
60
60
60
60
60
60
60
60
60
60
60
60
60
60
60
60
60
60
60
60
60
60
60
60
60
60
60
60
60
60
60
60
60
60
60
60
60
60
60
60
60
60
60
60
60
60
60
60
60
60
60
60
60
60
60
60
60
60
60
60
60
60
60
60
60
60
60
60
60
60
60
60
60
60
60
60
60
60
60
60
60
60
60
60
60
60
60
60
60
60
60
60
60
60
60
60
60
60
60
60
60
60
60
60
60
60
60
60
60
60
60
60
60
60
60
60
60
60
60
60
60
60
60
60
60
60
60
60
60
60
60
60
60
60
60
60
60
60
60
60
60
60
60
60
60
60
60
60
60
60
60
METADATA
INFORMATION 0

length 1 1668 float
282.843
100
200
200
200
282.843
282.843
282.843
282.843
282.843
282.843
282.843
200
200
100
200
282.843
282.843
200
282.843
200
282.843
200
282.843
282.843
200
200
282.843
200
100
200
282.843
282.843
282.843
282.843
282.843
200
200
100
100
223.607
200
200
282.843
200
282.843
282.843
282.843
141.421
200
200
141.421
282.843
282.843
282.843
282.843
200
200
282.843
282.843
282.843
200
282.843
282.843
282.843
282.843
282.843
200
200
282.843
282.843
282.843
282.843
141.421
200
282.843
200
200
282.843
282.843
282.843
282.843
282.843
282.843
200
200
50
141.421
141.421
282.843
282.843
200
200
282.843
282.843
282.843
282.843
282.843
282.843
282.843
282.843
282.843
282.843
200
200
200
200
282.843
282.843
200
200
200
200
200
141.421
282.843
282.843
282.843
200
200
282.843
141.421
282.843
200
100
100
360.555
282.843
282.843
282.843
200
200
200
200
200
282.843
282.843
200
282.843
200
200
282.843
200
141.421
282.843
282.843
282.843
100
200
200
282.843
200
200
200
200
100
100
300
282.843
200
200
200
282.843
200
200
282.843
200
282.843
282.843
282.843
282.843
141.421
282.843
282.843
282.843
282.843
282.843
282.843
282.843
200
200
200
282.843
282.843
282.843
282.843
200
200
282.843
200
141.421
282.843
282.843
200
200
282.843
282.843
200
282.843
200
200
282.843
200
282.843
282.843
282.843
282.843
282.843
200
200
282.843
282.843
200
200
200
50
206.155
200
200
200
200
200
200
200
200
200
200
200
200
200
200
200
200
200
200
200
200
200
200
200
100
100
223.607
200
282.843
282.843
282.843
282.843
282.843
282.843
282.843
282.843
200
200
282.843
282.843
282.843
282.843
282.843
282.843
282.843
100
100
360.555
200
200
200
282.843
282.843
282.843
282.843
282.843
282.843