# vtk DataFile Version 4.1
vtk output
ASCII
DATASET POLYDATA
POINTS 142 float
2398.48 49190.1 20019.8
3375.74 49196.7 20230.1
4351.81 49183 20444.9
5327.95 49169.9 20660.4
6303.9 49146 20877.2
7278.38 49101.2 21096.8
8250.71 49037.5 21319.6
9220.4 48954.4 21545.2
10191.4 48878.7 21769.4
11164.1 48814.4 21991.2
12136.9 48750.8 22213
13108.9 48684 22435.8
14076.2 48591.8 22662.8
15041.5 48482 22889.8
16006.8 48371.5 23115.5
16964.6 48243.5 23343.1
17911.5 48064.5 23571.5
18856.9 47885.4 23799.4
19780.7 47662.7 24028.7
20698.6 47419.1 24259.8
21463.1 47220 24736.1
22310.7 47006.2 25260.9
23239 46776.4 25829.8
21175.1 47268.5 24233.2
21699.4 47099.6 24205.9
22245.3 46921.2 24132.7
23476 46572.7 24300.6
24843 46216.4 24481.6
26311.3 45847.4 24580.4
22677.1 46769.3 23902.6
23153.5 46604.1 23649.1
23610.2 46447 23348.1
23893.7 46624.5 26569.4
24590.5 46382.5 27359.6
25322.8 46036.6 28189.8
24477 46445.8 26141
25813.7 46077.3 26364.4
27226.3 45642.7 26490.3
27233.5 45543.6 24321.7
28227.4 45166.6 24053.8
29303.8 44727.1 23768.6
27006.2 45671.2 24828.8
27668.4 45505.1 25143
28352.8 45311.9 25519.1
25770.4 45708 29212.3
26250.9 45335.5 30325.5
26708 44795 31433.2
26172.9 45680.4 28691.3
27064.6 45299.1 29098.9
28010.6 44821.9 29472.8
28784.5 44959.7 27270.9
30332 44097.1 28197.1
32075.7 43210.3 29033.5
24416.6 46106.8 22201.9
25256.2 45639.3 20974.7
26134.7 45027.8 19656.8
24824 46069.7 22925
26084.2 45651.3 22634.8
27438.3 45126.5 22398.5
30020.6 44368.6 23295.4
30810.9 43974 22774.4
31673.9 43544.8 22204.9
30091.4 44447.5 23813
30888.6 44177.5 23939.5
31731.5 43859.8 24109.8
28976.1 45097.4 25696.7
29643.3 44836.7 25879.1
30355.9 44520.3 26076
27019.2 44527.3 31786.7
27368 44231.9 32174.3
27749.1 43902.5 32594.7
26712.8 44758.2 31518.5
26717.7 44716.5 31612.4
26723.3 44670.5 31714.8
28039.8 44908.3 22429.1
28702.7 44665.1 22463.9
29433.2 44410.3 22500
28011 44833 22011.3
28577 44522.3 21549.4
29133.8 44200.9 21012.4
26160.5 44998.7 19567
26188.8 44966.6 19468
26219.5 44930.5 19360
26860.9 44628.7 19096.3
27676.8 44186 18511.7
28570.2 43691.9 17893.8
28420.9 44568.1 29777.1
28880 44296.1 30115.6
29378.7 43995 30484.8
28876.9 44441.3 29455.3
29820.7 44043.3 29380.5
30816.1 43654.9 29212.2
32706.1 42859.2 29591.9
32709.8 42964.3 29087.5
33371.7 42758.8 29092.6
34055.8 42787.8 29039.8
29411.6 43315.5 17655.9
30349.5 42909.1 17385.3
31382.2 42751.6 17079.5
29302.6 43085.8 16926.4
26204.9 44779 18724
26177.2 44574 18045.8
26098.3 44315.5 17345.9
30743.1 43304.3 30911.9
32418.8 42736.9 31482.1
30070.5 43455.3 31466.1
30711 42901.9 32532.5
31045 42819.7 33390.8
31708 43913.7 25912.3
33175.7 43205.9 25749.6
34909.7 42827.7 25701.2
31140.3 44116.5 26528
31853.7 43717.6 27042.5
32586.6 43303.1 27653.7
34303.1 42945.8 28821.2
34524.2 43122.7 28539.6
32040.5 43391.3 22108.1
32443.3 43220.5 22001.7
32885.1 43036.8 21884.5
32209.6 43200 21521.7
32712.6 42857 20750
33217.5 42708.8 19875
32614.5 43457.4 24056.5
33581.7 43002.6 23991.2
34680.2 42681 23824.1
28362.4 43534.2 32924.9
29037.7 43129.2 33292
29805.6 42713.8 33732.4
28025.5 43498.6 33260.1
28245.3 43095.3 33992.3
28416.1 42700.8 34793.2
26559.4 44449.8 32350.6
26372.3 44194 33046.9
26130.3 43936.9 33791
26812.8 44539.7 31938.1
26878.5 44408.4 32177.4
26969 44273.1 32401.3
29342.4 44024.3 20534.4
29571.5 43827.5 20008.5
29822.5 43613.3 19434.6
30207.7 43682.7 20400.3
31388.3 43131.3 19859.7
LINES 141 423
2 0 1
2 1 2
2 2 3
2 3 4
2 4 5
2 5 6
2 6 7
2 7 8
2 8 9
2 9 10
2 10 11
2 11 12
2 12 13
2 13 14
2 14 15
2 15 16
2 16 17
2 17 18
2 18 19
2 19 20
2 19 23
2 20 21
2 21 22
2 22 32
2 22 35
2 23 24
2 24 25
2 25 26
2 25 29
2 26 27
2 27 28
2 28 38
2 28 41
2 29 30
2 30 31
2 31 53
2 31 56
2 32 33
2 33 34
2 34 44
2 34 47
2 35 36
2 36 37
2 37 50
2 38 39
2 39 40
2 40 59
2 40 62
2 41 42
2 42 43
2 43 65
2 44 45
2 45 46
2 46 68
2 46 71
2 47 48
2 48 49
2 49 86
2 49 89
2 50 51
2 51 52
2 52 92
2 52 93
2 53 54
2 54 55
2 55 80
2 55 83
2 56 57
2 57 58
2 58 74
2 58 77
2 59 60
2 60 61
2 61 116
2 61 119
2 62 63
2 63 64
2 64 122
2 65 66
2 66 67
2 67 108
2 67 111
2 68 69
2 69 70
2 70 125
2 70 128
2 71 72
2 72 73
2 73 131
2 73 134
2 74 75
2 75 76
2 77 78
2 78 79
2 79 137
2 79 140
2 80 81
2 81 82
2 82 100
2 83 84
2 84 85
2 85 96
2 85 99
2 86 87
2 87 88
2 88 103
2 88 105
2 89 90
2 90 91
2 93 94
2 94 95
2 95 114
2 96 97
2 97 98
2 100 101
2 101 102
2 103 104
2 105 106
2 106 107
2 108 109
2 109 110
2 111 112
2 112 113
2 114 115
2 116 117
2 117 118
2 119 120
2 120 121
2 122 123
2 123 124
2 125 126
2 126 127
2 128 129
2 129 130
2 131 132
2 132 133
2 134 135
2 135 136
2 137 138
2 138 139
2 140 141
POINT_DATA 142
SCALARS LAT float
LOOKUP_TABLE default
0
0.499827
0.999586
1.49945
1.99946
2.49943
2.99921
3.49873
3.99844
4.49831
4.9982
5.49793
5.99685
6.49569
6.99443
7.49081
7.98599
8.48041
8.96918
9.45788
9.91911
10.4289
10.9853
9.7081
9.98385
10.2733
10.9184
11.6305
12.3891
10.5295
10.8117
11.0962
11.485
12.0254
12.6053
11.6446
12.3468
13.0885
12.8915
13.4396
14.0382
12.7684
13.1442
13.5464
13.1871
13.8213
14.4786
13.13
13.656
14.2178
14.0244
15.024
16.0877
11.8173
12.5966
13.4455
11.766
12.4456
13.1813
14.5035
15.0163
15.576
14.4566
14.8822
15.3406
13.8878
14.2574
14.6594
14.7495
15.0491
15.3772
14.5251
14.5765
14.6327
13.5016
13.8551
14.2423
13.5568
13.9538
14.3726
13.4945
13.5484
13.6074
13.9457
14.4942
15.0909
14.503
14.8189
15.1638
14.691
15.2045
15.7453
16.5439
16.4289
16.7754
17.1188
15.5669
16.0956
16.6398
15.7691
13.9343
14.2889
14.664
15.9577
16.8871
15.822
16.5027
16.9651
15.4049
16.2237
17.1114
15.1551
15.638
16.1582
17.3018
17.5014
15.7806
16.0057
16.252
16.0431
16.5346
17.0451
15.8265
16.3619
16.9402
15.7711
16.2055
16.6944
15.7902
16.2223
16.6768
14.9791
15.3616
15.7734
14.7697
14.91
15.0484
14.6479
14.9511
15.2821
15.0428
15.7481
