# vtk DataFile Version 4.1
vtk output
ASCII
DATASET POLYDATA
POINTS 282 float
2399.57 37146.9 26347.8
3398.9 37114.2 26389.1
4393.08 37018.7 26422.2
5383.82 36890.1 26451.7
6380.42 36818.2 26487.7
7378.32 36778.1 26524.6
8373.56 36691.6 26559.6
9355.62 36527.9 26585.3
10346.2 36397.7 26616
11337.9 36283.3 26647.2
11554.1 36103.5 27604.7
11770.2 35903.2 28551.3
11967.4 35576.3 29419
12149.9 35138.7 30210.4
12326.8 34677.1 30980.1
12487 34206.2 31703.2
12621.3 33686.9 32349.4
12739.2 33151.1 32912.4
12859.7 32615.2 33403
12322.2 36130.6 26671.2
13305 35969.1 26693.7
14286.5 35803.3 26714.5
15272.6 35650.4 26740
16260.5 35515.2 26767.6
17241.4 35349.7 26789.7
18222.9 35180.9 26812.8
19201.7 35009.1 26834.5
20174.6 34811.1 26851
12657.4 32130.9 33830.6
12437.8 31565.9 34254.8
12192.3 30927.5 34717.4
13082.5 32344.4 33580.2
13335.8 32040 33770
13643.7 31732.2 33946
21351.9 34684.5 26314.3
22628.3 34513.1 25715
23985.5 34217.1 25056.5
20619.4 34685.7 27079
21103.8 34532.6 27324.5
21570.1 34351.7 27614.2
11617 30463.9 35091.5
10956.8 29967 35484.8
10219.9 29469.9 35832.1
12345.5 30056.4 35247.4
12561.5 29219.1 35574.1
12819.8 28311.1 35767.7
13928.8 31049.4 34396
14246 30303.1 34854.7
14566.5 29518.1 35186.8
14246.6 31489.1 34017
14925.6 31220.4 34098.9
15674.7 30955.6 34162.7
24694.8 33997 24181.8
25423.7 33622.4 23286.4
26112.2 33067.8 22405.8
25003.3 33886.6 25057.3
26051.8 33531.6 25153.2
27155.6 33113.5 25294.8
23382 33796.7 27888.4
25299.3 33068.7 28131.9
27118.5 32189.8 28523.6
22067.2 33974.2 28580.6
22587.4 33464.9 29554.1
22996.9 32745.1 30362.8
27954.1 31524.7 29367.8
28718.4 30642.5 30045.8
29458.9 29573.6 30521.5
28317.4 31733.6 28318.2
29538.7 31264.4 27971.3
30856 30782.4 27528.6
14566.6 28850.9 35387.7
14566.8 28116.5 35549.3
14554 27291.8 35711.6
15094.4 29141.9 35230.7
15687 28822.1 35227.3
16357 28516.3 35195.1
16167.7 30596.2 34355.9
16705.9 30209.7 34530
17286.4 29777 34656
17058.1 31006.4 33804.6
18549.5 31048.8 33321.5
20145.9 31198.1 32763.9
9993.89 29069.8 35992.3
9729.86 28641.4 36148
9438.15 28168 36295.6
10137.5 29455 35848
10045.4 29438.4 35865.8
9943.71 29420.4 35886
22913.9 32367.5 30790
22819.9 31942 31258.1
22714.1 31470.9 31769.3
23451.2 32332.2 30658.9
23980.9 31914.6 30938.7
24564 31462.2 31218
27244.5 33083.8 25268.1
27341.6 33049.9 25238.9
27447.6 33012.5 25206.8
27852.2 32678.6 25840.9
28582.9 32170.5 26450.8
29368 31608.1 27123.2
13123.6 28003.7 35785.2
13469.8 27653.5 35805.8
13857.5 27262.4 35828.6
12745.8 27637 35915.8
12601.2 26891.5 36073.8
12380.8 26087.8 36266.6
26738.4 32636.7 22158.6
27435.2 32141.9 21902
28230.7 31604.9 21612.1
26186.2 32802.7 21849.3
26252.6 32499.6 21246.1
26281.2 32171.3 20610.4
12472.4 25328.7 36384.6
12542.7 24526.6 36462.4
12630.2 23763.6 36425.1
11576.3 25320 36528
10672.4 24617.9 36725
9611.21 24055.9 36812
28813.7 30991.9 20908.8
29400.1 30271.3 20205.5
29946 29421.8 19620.7
28817.4 31370.9 21677
29465.5 31122.8 21749
30134.9 30870.8 21889.3
8734.9 29700.6 35936.8
7409.09 29958 35963.7
5960.55 30168.3 35956.7
30098.3 31237.4 27225.6
14960.1 26572.9 35774.5
15414.4 25767.5 35837.4
15925.3 24901.9 35886.6
9373.61 27415.6 36446.8
9302.54 26580.4 36620.7
9238.17 25684.7 36758.3
8346.16 27470.7 36573.5
7135.88 26821.4 36786.9
5751.95 26135.7 36995.6
29511 29290.3 30720.9
29568 28972.3 30936
29626.8 28617.6 31166
30097.7 29078.5 30538.3
30815.8 28546.9 30529.1
31608.6 28018.3 30462.8
28139.2 32758.6 24579.8
28842.5 32349.4 23957.5
29601.7 31807.2 23365.7
26074.6 30934.9 31169.2
27618.7 30323.1 30969.8
24953.9 30816.2 31745.7
31560.3 30413.9 27576
32324.2 30002.8 27612.2
33101.5 29512.4 27607
31450.1 30692.4 26942.5
32023.6 30619.8 26282.2
32589.1 30515.5 25554.5
26030.1 31990.1 20056.8
25746.2 31740.4 19502.1
25427.1 31427.2 18936.6
26383.2 32015.7 20425.2
26494.7 31841.1 20222.8
26630.3 31654.7 20033.1
16666.4 28171.2 35215.2
17009.9 27784.6 35229.5
17389 27356.9 35239.9
17471.3 28539.7 35018.3
18706.2 28597.5 34786.2
19974.7 28553.9 34558
17485.3 29489 34745.5
17700.9 29172.6 34815.6
17925 28898.6 34850.4
22419.4 31209.8 32124.6
22094 30920.9 32517.7
21737.5 30602.6 32939.8
23171.4 30350 32776.1
23656.5 29186.2 33394
24193.9 27908 33654.6
20764.1 31557.8 32247.7
21437.3 31943 31673.9
22037.9 32362.5 31054.2
13879.3 27179.3 35841.8
13903.6 27085.6 35855.9
13930.6 26981.5 35871.1
4885.76 29952.9 36117.4
3699.47 29697.7 36202.4
2382.01 29412.6 36309.7
5606.85 30391 35843.5
5213.47 30633.8 35718.1
4836.67 30908.6 35570.3
27748.3 30844.5 19697.6
26784.7 30977.3 19136.1
26772.3 30246 18386.7
26623.6 29441.6 17757.1
25182.7 31366 18749.8
24910.7 31294 18544.3
24610.1 31213.4 18325.8
25380.8 30916.8 18334.9
25364 30343.1 17841.2
25385.2 29691 17429.3
4453.15 26206.7 37095.6
3028.35 26310.9 37156.7
1456.99 26443.4 37193.8
5233.5 25542.2 37130.1
4667.12 24911.1 37183.4
4119.44 24206.1 37184.6
8911.79 24050.7 36907.1
8155.88 24045.1 36994.1
7328.33 24045.9 37061.7
9338.02 23739.1 36807.4
9035.26 23405.7 36785.3
8740.55 23038.7 36723.3
21008 30346.2 33371.2
20191.4 30047.5 33815.4
19367.2 29688.3 34268.7
21699.8 30262.1 33261.8
21646.2 29867.5 33574.8
21613.9 29442.9 33816.7
12280.1 22959.8 36305.6
11878.7 22098.6 36085.9
11427.3 21131.2 35817.4
13029.1 23204.3 36266.6
13476.5 22628.6 36045.1
14012.5 22050.6 35789.2
8743.92 24917.6 36884.6
9525.6 24898.2 36808
22175 32988.3 30348.2
33808 29183.6 27227.7
34525 28773.1 26803
35220 28271.1 26339.9
33948.8 28418.2 28015.2
34687.1 27218.7 28368.5
35130.6 26053.9 28490.9
33618.7 29945.4 24877
32730.4 30502.2 24503.2
32751.5 30245 23539.3
32609.2 29884.2 22682.2
13750.6 26102 36050.9
13548.7 25136.1 36245.6
13445.3 24195.5 36333.8
15998.3 24028.3 35944.2
16067.3 23177.9 35844.6
16126.1 22356.4 35605.5
16051.3 24816.2 35878.6
16190.8 24720.3 35867.7
16344.3 24614.5 35855.1
24070.9 26852.2 34000.3
23934.6 25741.8 34284.4
23696 24593.4 34439.1
24679.2 27389.1 33686.5
25204.9 26809.6 33709.3
25780.4 26256.8 33670.3
29255.4 27761.7 31951.3
28754.3 26949.3 32488.5
28097.6 26144.5 32789
30268.9 27614.9 31477.4
30920.4 26668.3 31492.4
31348.3 25725.6 31422.3
30363.7 29031.4 19564.8
30815.7 28600.1 19518.6
31281.2 28126.8 19505
29964.8 28756.1 19081.3
29890.8 28077.5 18552.8
29695.7 27392.8 18091.4
30851.7 30781.7 22434.3
31627.9 30664.9 23036.5
32271.9 27161.2 30582.2
32749.9 26284.4 30483
33175.4 25580.7 30171.5
31690.4 27998.7 30425.7
31780.9 27976.8 30384.3
31879.2 27952.8 30339.1
21259.9 27959.6 34377.6
22688.9 27300.1 34222.1
20619.6 28854.9 34292.2
30251.3 31526.7 23315.3
30937.1 31200.1 23287.9
29907.9 31449.4 22801.4
17577.6 26713.6 35314.9
17784.5 25997.7 35402.8
18014.5 25218.1 35493.4
18816.1 26742.6 35109.5
20389.3 26112.3 34935.5
21880.1 25369.2 34769.8
LINES 281 843
2 0 1
2 1 2
2 2 3
2 3 4
2 4 5
2 5 6
2 6 7
2 7 8
2 8 9
2 9 10
2 9 19
2 10 11
2 11 12
2 12 13
2 13 14
2 14 15
2 15 16
2 16 17
2 17 18
2 18 28
2 18 31
2 19 20
2 20 21
2 21 22
2 22 23
2 23 24
2 24 25
2 25 26
2 26 27
2 27 34
2 27 37
2 28 29
2 29 30
2 30 40
2 30 43
2 31 32
2 32 33
2 33 46
2 33 49
2 34 35
2 35 36
2 36 52
2 36 55
2 37 38
2 38 39
2 39 58
2 39 61
2 40 41
2 41 42
2 42 82
2 42 85
2 43 44
2 44 45
2 45 100
2 45 103
2 46 47
2 47 48
2 48 70
2 48 73
2 49 50
2 50 51
2 51 76
2 51 79
2 52 53
2 53 54
2 54 106
2 54 109
2 55 56
2 56 57
2 57 94
2 57 97
2 58 59
2 59 60
2 60 64
2 60 67
2 61 62
2 62 63
2 63 88
2 63 91
2 64 65
2 65 66
2 66 137
2 66 140
2 67 68
2 68 69
2 69 149
2 69 152
2 70 71
2 71 72
2 72 128
2 73 74
2 74 75
2 75 161
2 75 164
2 76 77
2 77 78
2 78 167
2 79 80
2 80 81
2 81 176
2 82 83
2 83 84
2 84 131
2 84 134
2 85 86
2 86 87
2 87 124
2 88 89
2 89 90
2 90 170
2 90 173
2 91 92
2 92 93
2 93 146
2 93 148
2 94 95
2 95 96
2 96 143
2 97 98
2 98 99
2 99 127
2 100 101
2 101 102
2 102 179
2 103 104
2 104 105
2 105 112
2 105 115
2 106 107
2 107 108
2 108 118
2 108 121
2 109 110
2 110 111
2 111 155
2 111 158
2 112 113
2 113 114
2 114 216
2 114 219
2 115 116
2 116 117
2 117 204
2 117 207
2 118 119
2 119 120
2 120 256
2 120 259
2 121 122
2 122 123
2 123 262
2 124 125
2 125 126
2 126 182
2 126 185
2 128 129
2 129 130
2 130 238
2 130 241
2 131 132
2 132 133
2 133 222
2 133 223
2 134 135
2 135 136
2 136 198
2 136 201
2 137 138
2 138 139
2 139 250
2 139 253
2 140 141
2 141 142
2 142 264
2 142 267
2 143 144
2 144 145
2 145 273
2 145 275
2 146 147
2 149 150
2 150 151
2 151 225
2 151 228
2 152 153
2 153 154
2 154 231
2 154 232
2 155 156
2 156 157
2 157 192
2 157 195
2 158 159
2 159 160
2 160 188
2 160 189
2 161 162
2 162 163
2 163 276
2 163 279
2 164 165
2 165 166
2 166 270
2 166 272
2 167 168
2 168 169
2 170 171
2 171 172
2 172 210
2 172 213
2 173 174
2 174 175
2 175 244
2 175 247
2 176 177
2 177 178
2 178 224
2 179 180
2 180 181
2 181 235
2 182 183
2 183 184
2 185 186
2 186 187
2 189 190
2 190 191
2 192 193
2 193 194
2 195 196
2 196 197
2 198 199
2 199 200
2 201 202
2 202 203
2 204 205
2 205 206
2 207 208
2 208 209
2 210 211
2 211 212
2 213 214
2 214 215
2 216 217
2 217 218
2 219 220
2 220 221
2 225 226
2 226 227
2 228 229
2 229 230
2 232 233
2 233 234
2 235 236
2 236 237
2 238 239
2 239 240
2 241 242
2 242 243
2 244 245
2 245 246
2 247 248
2 248 249
2 250 251
2 251 252
2 253 254
2 254 255
2 256 257
2 257 258
2 259 260
2 260 261
2 262 263
2 264 265
2 265 266
2 267 268
2 268 269
2 270 271
2 273 274
2 276 277
2 277 278
2 279 280
2 280 281
POINT_DATA 282
SCALARS LAT float
LOOKUP_TABLE default
0
0.500359
1.00001
1.49975
1.99967
2.49937
2.99917
3.49714
3.99693
4.49631
4.99528
5.49098
5.96496
6.42624
6.88363
7.32246
7.74236
8.13541
8.50365
4.99449
5.49261
5.99042
6.48952
6.98827
7.48577
7.98386
8.48086
8.97735
8.84214
9.21207
9.62494
8.7001
8.91967
9.15447
9.62737
10.3376
11.1062
9.23501
9.51713
9.80613
10.039
10.4966
10.9737
10.1405
10.6027
11.0845
9.58748
10.0533
10.5086
9.48143
9.84884
10.2474
11.68
12.2869
12.9108
11.6413
12.1969
12.7913
10.7635
11.7961
12.8251
10.3814
10.9892
11.5679
13.5058
14.1807
14.873
13.4747
14.1514
14.8869
10.857
11.233
11.6533
10.8335
11.1702
11.5388
10.5674
10.9099
11.2774
10.9623
11.7465
12.5952
11.2171
11.4805
11.7681
11.0164
11.064
11.1166
11.856
12.1758
12.5273
11.9087
12.2738
12.6684
12.84
12.8934
12.9519
13.2844
13.8238
14.4122
11.3008
11.5472
11.8228
11.4316
11.8194
12.2471
13.3105
13.7567
14.258
13.2212
13.5604
13.9184
12.6339
13.0384
13.4228
12.8183
13.399
14.001
14.808
15.3906
15.9741
14.5755
14.9243
15.2887
11.7376
12.413
13.1448
14.8249
12.0673
12.5308
13.0339
12.1532
12.5812
13.0355
12.4307
13.1256
13.9049
15.0482
15.2423
15.4557
15.2772
15.724
16.2016
13.4356
13.9478
14.5002
13.4687
14.3051
13.1288
15.285
15.7192
16.1787
15.3066
15.7454
16.2091
14.2356
14.5712
14.9317
14.0497
14.1945
14.3437
11.7707
12.0294
12.3152
12.103
12.7319
13.3767
11.458
11.6526
11.8305
12.7925
13.0857
13.4045
13.3146
14.0167
14.7221
13.0363
13.5187
13.9984
11.8663
11.9152
11.9695
13.6988
14.307
14.9831
13.3614
13.6009
13.8455
15.0542
14.911
15.4346
15.9508
15.0885
15.2627
15.4528
15.3269
15.7054
16.0912
14.5572
15.2721
16.0608
14.3046
14.7294
15.1758
14.3539
14.7344
15.1495
14.2101
14.4356
14.673
13.8473
14.3355
14.8389
13.6396
13.8929
14.1377
13.8653
14.3529
14.9033
13.7754
14.1564
14.5707
13.4961
13.4549
14.4751
16.6121
17.0765
17.5637
16.9001
17.6262
18.2524
16.8881
16.7396
17.2385
17.7089
12.4273
12.9302
13.4053
13.4732
13.9027
14.3315
13.1102
13.195
13.2885
15.281
15.8581
16.4496
15.0777
15.4691
15.8685
16.0654
16.6131
17.1537
16.071
16.6456
17.1645
16.2613
16.5746
16.9066
16.4026
16.8343
17.2584
15.7412
16.2358
16.7467
17.2485
17.6882
16.2475
16.2985
16.3539
14.0904
14.8812
13.7566
14.8549
15.2349
14.8677
12.6525
13.0277
13.4366
13.0948
13.9466
14.7836
