# vtk DataFile Version 4.1
vtk output
ASCII
DATASET POLYDATA
POINTS 426 float
0 42400 22000
1200 42400 22000
2399.57 37146.9 26347.8
3398.9 37114.2 26389.1
4393.08 37018.7 26422.2
5383.82 36890.1 26451.7
6380.42 36818.2 26487.7
7378.32 36778.1 26524.6
8373.56 36691.6 26559.6
9355.62 36527.9 26585.3
10346.2 36397.7 26616
11337.9 36283.3 26647.2
11554.1 36103.5 27604.7
11770.2 35903.2 28551.3
11967.4 35576.3 29419
12149.9 35138.7 30210.4
12326.8 34677.1 30980.1
12487 34206.2 31703.2
12621.3 33686.9 32349.4
12739.2 33151.1 32912.4
12859.7 32615.2 33403
12322.2 36130.6 26671.2
13305 35969.1 26693.7
14286.5 35803.3 26714.5
15272.6 35650.4 26740
16260.5 35515.2 26767.6
17241.4 35349.7 26789.7
18222.9 35180.9 26812.8
19201.7 35009.1 26834.5
20174.6 34811.1 26851
12657.4 32130.9 33830.6
12437.8 31565.9 34254.8
12192.3 30927.5 34717.4
13082.5 32344.4 33580.2
13335.8 32040 33770
13643.7 31732.2 33946
21351.9 34684.5 26314.3
22628.3 34513.1 25715
23985.5 34217.1 25056.5
20619.4 34685.7 27079
21103.8 34532.6 27324.5
21570.1 34351.7 27614.2
11617 30463.9 35091.5
10956.8 29967 35484.8
10219.9 29469.9 35832.1
12345.5 30056.4 35247.4
12561.5 29219.1 35574.1
12819.8 28311.1 35767.7
13928.8 31049.4 34396
14246 30303.1 34854.7
14566.5 29518.1 35186.8
14246.6 31489.1 34017
14925.6 31220.4 34098.9
15674.7 30955.6 34162.7
24694.8 33997 24181.8
25423.7 33622.4 23286.4
26112.2 33067.8 22405.8
25003.3 33886.6 25057.3
26051.8 33531.6 25153.2
27155.6 33113.5 25294.8
23382 33796.7 27888.4
25299.3 33068.7 28131.9
27118.5 32189.8 28523.6
22067.2 33974.2 28580.6
22587.4 33464.9 29554.1
22996.9 32745.1 30362.8
27954.1 31524.7 29367.8
28718.4 30642.5 30045.8
29458.9 29573.6 30521.5
28317.4 31733.6 28318.2
29538.7 31264.4 27971.3
30856 30782.4 27528.6
14566.6 28850.9 35387.7
14566.8 28116.5 35549.3
14554 27291.8 35711.6
15094.4 29141.9 35230.7
15687 28822.1 35227.3
16357 28516.3 35195.1
16167.7 30596.2 34355.9
16705.9 30209.7 34530
17286.4 29777 34656
17058.1 31006.4 33804.6
18549.5 31048.8 33321.5
20145.9 31198.1 32763.9
9993.89 29069.8 35992.3
9729.86 28641.4 36148
9438.15 28168 36295.6
10137.5 29455 35848
10045.4 29438.4 35865.8
9943.71 29420.4 35886
22913.9 32367.5 30790
22819.9 31942 31258.1
22714.1 31470.9 31769.3
23451.2 32332.2 30658.9
23980.9 31914.6 30938.7
24564 31462.2 31218
27244.5 33083.8 25268.1
27341.6 33049.9 25238.9
27447.6 33012.5 25206.8
27852.2 32678.6 25840.9
28582.9 32170.5 26450.8
29368 31608.1 27123.2
13123.6 28003.7 35785.2
13469.8 27653.5 35805.8
13857.5 27262.4 35828.6
12745.8 27637 35915.8
12601.2 26891.5 36073.8
12380.8 26087.8 36266.6
26738.4 32636.7 22158.6
27435.2 32141.9 21902
28230.7 31604.9 21612.1
26186.2 32802.7 21849.3
26252.6 32499.6 21246.1
26281.2 32171.3 20610.4
12472.4 25328.7 36384.6
12542.7 24526.6 36462.4
12630.2 23763.6 36425.1
11576.3 25320 36528
10672.4 24617.9 36725
9611.21 24055.9 36812
28813.7 30991.9 20908.8
29400.1 30271.3 20205.5
29946 29421.8 19620.7
28817.4 31370.9 21677
29465.5 31122.8 21749
30134.9 30870.8 21889.3
8734.9 29700.6 35936.8
7409.09 29958 35963.7
5960.55 30168.3 35956.7
30098.3 31237.4 27225.6
14960.1 26572.9 35774.5
15414.4 25767.5 35837.4
15925.3 24901.9 35886.6
9373.61 27415.6 36446.8
9302.54 26580.4 36620.7
9238.17 25684.7 36758.3
8346.16 27470.7 36573.5
7135.88 26821.4 36786.9
5751.95 26135.7 36995.6
29511 29290.3 30720.9
29568 28972.3 30936
29626.8 28617.6 31166
30097.7 29078.5 30538.3
30815.8 28546.9 30529.1
31608.6 28018.3 30462.8
28139.2 32758.6 24579.8
28842.5 32349.4 23957.5
29601.7 31807.2 23365.7
26074.6 30934.9 31169.2
27618.7 30323.1 30969.8
24953.9 30816.2 31745.7
31560.3 30413.9 27576
32324.2 30002.8 27612.2
33101.5 29512.4 27607
31450.1 30692.4 26942.5
32023.6 30619.8 26282.2
32589.1 30515.5 25554.5
26030.1 31990.1 20056.8
25746.2 31740.4 19502.1
25427.1 31427.2 18936.6
26383.2 32015.7 20425.2
26494.7 31841.1 20222.8
26630.3 31654.7 20033.1
16666.4 28171.2 35215.2
17009.9 27784.6 35229.5
17389 27356.9 35239.9
17471.3 28539.7 35018.3
18706.2 28597.5 34786.2
19974.7 28553.9 34558
17485.3 29489 34745.5
17700.9 29172.6 34815.6
17925 28898.6 34850.4
22419.4 31209.8 32124.6
22094 30920.9 32517.7
21737.5 30602.6 32939.8
23171.4 30350 32776.1
23656.5 29186.2 33394
24193.9 27908 33654.6
20764.1 31557.8 32247.7
21437.3 31943 31673.9
22037.9 32362.5 31054.2
13879.3 27179.3 35841.8
13903.6 27085.6 35855.9
13930.6 26981.5 35871.1
4885.76 29952.9 36117.4
3699.47 29697.7 36202.4
2382.01 29412.6 36309.7
5606.85 30391 35843.5
5213.47 30633.8 35718.1
4836.67 30908.6 35570.3
27748.3 30844.5 19697.6
26784.7 30977.3 19136.1
26772.3 30246 18386.7
26623.6 29441.6 17757.1
25182.7 31366 18749.8
24910.7 31294 18544.3
24610.1 31213.4 18325.8
25380.8 30916.8 18334.9
25364 30343.1 17841.2
25385.2 29691 17429.3
4453.15 26206.7 37095.6
3028.35 26310.9 37156.7
1456.99 26443.4 37193.8
5233.5 25542.2 37130.1
4667.12 24911.1 37183.4
4119.44 24206.1 37184.6
8911.79 24050.7 36907.1
8155.88 24045.1 36994.1
7328.33 24045.9 37061.7
9338.02 23739.1 36807.4
9035.26 23405.7 36785.3
8740.55 23038.7 36723.3
21008 30346.2 33371.2
20191.4 30047.5 33815.4
19367.2 29688.3 34268.7
21699.8 30262.1 33261.8
21646.2 29867.5 33574.8
21613.9 29442.9 33816.7
12280.1 22959.8 36305.6
11878.7 22098.6 36085.9
11427.3 21131.2 35817.4
13029.1 23204.3 36266.6
13476.5 22628.6 36045.1
14012.5 22050.6 35789.2
8743.92 24917.6 36884.6
9525.6 24898.2 36808
22175 32988.3 30348.2
33808 29183.6 27227.7
34525 28773.1 26803
35220 28271.1 26339.9
33948.8 28418.2 28015.2
34687.1 27218.7 28368.5
35130.6 26053.9 28490.9
33618.7 29945.4 24877
32730.4 30502.2 24503.2
32751.5 30245 23539.3
32609.2 29884.2 22682.2
13750.6 26102 36050.9
13548.7 25136.1 36245.6
13445.3 24195.5 36333.8
15998.3 24028.3 35944.2
16067.3 23177.9 35844.6
16126.1 22356.4 35605.5
16051.3 24816.2 35878.6
16190.8 24720.3 35867.7
16344.3 24614.5 35855.1
24070.9 26852.2 34000.3
23934.6 25741.8 34284.4
23696 24593.4 34439.1
24679.2 27389.1 33686.5
25204.9 26809.6 33709.3
25780.4 26256.8 33670.3
29255.4 27761.7 31951.3
28754.3 26949.3 32488.5
28097.6 26144.5 32789
30268.9 27614.9 31477.4
30920.4 26668.3 31492.4
31348.3 25725.6 31422.3
30363.7 29031.4 19564.8
30815.7 28600.1 19518.6
31281.2 28126.8 19505
29964.8 28756.1 19081.3
29890.8 28077.5 18552.8
29695.7 27392.8 18091.4
30851.7 30781.7 22434.3
31627.9 30664.9 23036.5
32271.9 27161.2 30582.2
32749.9 26284.4 30483
33175.4 25580.7 30171.5
31690.4 27998.7 30425.7
31780.9 27976.8 30384.3
31879.2 27952.8 30339.1
21259.9 27959.6 34377.6
22688.9 27300.1 34222.1
20619.6 28854.9 34292.2
30251.3 31526.7 23315.3
30937.1 31200.1 23287.9
29907.9 31449.4 22801.4
17577.6 26713.6 35314.9
17784.5 25997.7 35402.8
18014.5 25218.1 35493.4
18816.1 26742.6 35109.5
20389.3 26112.3 34935.5
21880.1 25369.2 34769.8
2398.48 49190.1 20019.8
3375.74 49196.7 20230.1
4351.81 49183 20444.9
5327.95 49169.9 20660.4
6303.9 49146 20877.2
7278.38 49101.2 21096.8
8250.71 49037.5 21319.6
9220.4 48954.4 21545.2
10191.4 48878.7 21769.4
11164.1 48814.4 21991.2
12136.9 48750.8 22213
13108.9 48684 22435.8
14076.2 48591.8 22662.8
15041.5 48482 22889.8
16006.8 48371.5 23115.5
16964.6 48243.5 23343.1
17911.5 48064.5 23571.5
18856.9 47885.4 23799.4
19780.7 47662.7 24028.7
20698.6 47419.1 24259.8
21463.1 47220 24736.1
22310.7 47006.2 25260.9
23239 46776.4 25829.8
21175.1 47268.5 24233.2
21699.4 47099.6 24205.9
22245.3 46921.2 24132.7
23476 46572.7 24300.6
24843 46216.4 24481.6
26311.3 45847.4 24580.4
22677.1 46769.3 23902.6
23153.5 46604.1 23649.1
23610.2 46447 23348.1
23893.7 46624.5 26569.4
24590.5 46382.5 27359.6
25322.8 46036.6 28189.8
24477 46445.8 26141
25813.7 46077.3 26364.4
27226.3 45642.7 26490.3
27233.5 45543.6 24321.7
28227.4 45166.6 24053.8
29303.8 44727.1 23768.6
27006.2 45671.2 24828.8
27668.4 45505.1 25143
28352.8 45311.9 25519.1
25770.4 45708 29212.3
26250.9 45335.5 30325.5
26708 44795 31433.2
26172.9 45680.4 28691.3
27064.6 45299.1 29098.9
28010.6 44821.9 29472.8
28784.5 44959.7 27270.9
30332 44097.1 28197.1
32075.7 43210.3 29033.5
24416.6 46106.8 22201.9
25256.2 45639.3 20974.7
26134.7 45027.8 19656.8
24824 46069.7 22925
26084.2 45651.3 22634.8
27438.3 45126.5 22398.5
30020.6 44368.6 23295.4
30810.9 43974 22774.4
31673.9 43544.8 22204.9
30091.4 44447.5 23813
30888.6 44177.5 23939.5
31731.5 43859.8 24109.8
28976.1 45097.4 25696.7
29643.3 44836.7 25879.1
30355.9 44520.3 26076
27019.2 44527.3 31786.7
27368 44231.9 32174.3
27749.1 43902.5 32594.7
26712.8 44758.2 31518.5
26717.7 44716.5 31612.4
26723.3 44670.5 31714.8
28039.8 44908.3 22429.1
28702.7 44665.1 22463.9
29433.2 44410.3 22500
28011 44833 22011.3
28577 44522.3 21549.4
29133.8 44200.9 21012.4
26160.5 44998.7 19567
26188.8 44966.6 19468
26219.5 44930.5 19360
26860.9 44628.7 19096.3
27676.8 44186 18511.7
28570.2 43691.9 17893.8
28420.9 44568.1 29777.1
28880 44296.1 30115.6
29378.7 43995 30484.8
28876.9 44441.3 29455.3
29820.7 44043.3 29380.5
30816.1 43654.9 29212.2
32706.1 42859.2 29591.9
32709.8 42964.3 29087.5
33371.7 42758.8 29092.6
34055.8 42787.8 29039.8
29411.6 43315.5 17655.9
30349.5 42909.1 17385.3
31382.2 42751.6 17079.5
29302.6 43085.8 16926.4
26204.9 44779 18724
26177.2 44574 18045.8
26098.3 44315.5 17345.9
30743.1 43304.3 30911.9
32418.8 42736.9 31482.1
30070.5 43455.3 31466.1
30711 42901.9 32532.5
31045 42819.7 33390.8
31708 43913.7 25912.3
33175.7 43205.9 25749.6
34909.7 42827.7 25701.2
31140.3 44116.5 26528
31853.7 43717.6 27042.5
32586.6 43303.1 27653.7
34303.1 42945.8 28821.2
34524.2 43122.7 28539.6
32040.5 43391.3 22108.1
32443.3 43220.5 22001.7
32885.1 43036.8 21884.5
32209.6 43200 21521.7
32712.6 42857 20750
33217.5 42708.8 19875
32614.5 43457.4 24056.5
33581.7 43002.6 23991.2
34680.2 42681 23824.1
28362.4 43534.2 32924.9
29037.7 43129.2 33292
29805.6 42713.8 33732.4
28025.5 43498.6 33260.1
28245.3 43095.3 33992.3
28416.1 42700.8 34793.2
26559.4 44449.8 32350.6
26372.3 44194 33046.9
26130.3 43936.9 33791
26812.8 44539.7 31938.1
26878.5 44408.4 32177.4
26969 44273.1 32401.3
29342.4 44024.3 20534.4
29571.5 43827.5 20008.5
29822.5 43613.3 19434.6
30207.7 43682.7 20400.3
31388.3 43131.3 19859.7
LINES 425 1275
2 0 1
2 1 2
2 1 284
2 2 3
2 3 4
2 4 5
2 5 6
2 6 7
2 7 8
2 8 9
2 9 10
2 10 11
2 11 12
2 11 21
2 12 13
2 13 14
2 14 15
2 15 16
2 16 17
2 17 18
2 18 19
2 19 20
2 20 30
2 20 33
2 21 22
2 22 23
2 23 24
2 24 25
2 25 26
2 26 27
2 27 28
2 28 29
2 29 36
2 29 39
2 30 31
2 31 32
2 32 42
2 32 45
2 33 34
2 34 35
2 35 48
2 35 51
2 36 37
2 37 38
2 38 54
2 38 57
2 39 40
2 40 41
2 41 60
2 41 63
2 42 43
2 43 44
2 44 84
2 44 87
2 45 46
2 46 47
2 47 102
2 47 105
2 48 49
2 49 50
2 50 72
2 50 75
2 51 52
2 52 53
2 53 78
2 53 81
2 54 55
2 55 56
2 56 108
2 56 111
2 57 58
2 58 59
2 59 96
2 59 99
2 60 61
2 61 62
2 62 66
2 62 69
2 63 64
2 64 65
2 65 90
2 65 93
2 66 67
2 67 68
2 68 139
2 68 142
2 69 70
2 70 71
2 71 151
2 71 154
2 72 73
2 73 74
2 74 130
2 75 76
2 76 77
2 77 163
2 77 166
2 78 79
2 79 80
2 80 169
2 81 82
2 82 83
2 83 178
2 84 85
2 85 86
2 86 133
2 86 136
2 87 88
2 88 89
2 89 126
2 90 91
2 91 92
2 92 172
2 92 175
2 93 94
2 94 95
2 95 148
2 95 150
2 96 97
2 97 98
2 98 145
2 99 100
2 100 101
2 101 129
2 102 103
2 103 104
2 104 181
2 105 106
2 106 107
2 107 114
2 107 117
2 108 109
2 109 110
2 110 120
2 110 123
2 111 112
2 112 113
2 113 157
2 113 160
2 114 115
2 115 116
2 116 218
2 116 221
2 117 118
2 118 119
2 119 206
2 119 209
2 120 121
2 121 122
2 122 258
2 122 261
2 123 124
2 124 125
2 125 264
2 126 127
2 127 128
2 128 184
2 128 187
2 130 131
2 131 132
2 132 240
2 132 243
2 133 134
2 134 135
2 135 224
2 135 225
2 136 137
2 137 138
2 138 200
2 138 203
2 139 140
2 140 141
2 141 252
2 141 255
2 142 143
2 143 144
2 144 266
2 144 269
2 145 146
2 146 147
2 147 275
2 147 277
2 148 149
2 151 152
2 152 153
2 153 227
2 153 230
2 154 155
2 155 156
2 156 233
2 156 234
2 157 158
2 158 159
2 159 194
2 159 197
2 160 161
2 161 162
2 162 190
2 162 191
2 163 164
2 164 165
2 165 278
2 165 281
2 166 167
2 167 168
2 168 272
2 168 274
2 169 170
2 170 171
2 172 173
2 173 174
2 174 212
2 174 215
2 175 176
2 176 177
2 177 246
2 177 249
2 178 179
2 179 180
2 180 226
2 181 182
2 182 183
2 183 237
2 184 185
2 185 186
2 187 188
2 188 189
2 191 192
2 192 193
2 194 195
2 195 196
2 197 198
2 198 199
2 200 201
2 201 202
2 203 204
2 204 205
2 206 207
2 207 208
2 209 210
2 210 211
2 212 213
2 213 214
2 215 216
2 216 217
2 218 219
2 219 220
2 221 222
2 222 223
2 227 228
2 228 229
2 230 231
2 231 232
2 234 235
2 235 236
2 237 238
2 238 239
2 240 241
2 241 242
2 243 244
2 244 245
2 246 247
2 247 248
2 249 250
2 250 251
2 252 253
2 253 254
2 255 256
2 256 257
2 258 259
2 259 260
2 261 262
2 262 263
2 264 265
2 266 267
2 267 268
2 269 270
2 270 271
2 272 273
2 275 276
2 278 279
2 279 280
2 281 282
2 282 283
2 284 285
2 285 286
2 286 287
2 287 288
2 288 289
2 289 290
2 290 291
2 291 292
2 292 293
2 293 294
2 294 295
2 295 296
2 296 297
2 297 298
2 298 299
2 299 300
2 300 301
2 301 302
2 302 303
2 303 304
2 303 307
2 304 305
2 305 306
2 306 316
2 306 319
2 307 308
2 308 309
2 309 310
2 309 313
2 310 311
2 311 312
2 312 322
2 312 325
2 313 314
2 314 315
2 315 337
2 315 340
2 316 317
2 317 318
2 318 328
2 318 331
2 319 320
2 320 321
2 321 334
2 322 323
2 323 324
2 324 343
2 324 346
2 325 326
2 326 327
2 327 349
2 328 329
2 329 330
2 330 352
2 330 355
2 331 332
2 332 333
2 333 370
2 333 373
2 334 335
2 335 336
2 336 376
2 336 377
2 337 338
2 338 339
2 339 364
2 339 367
2 340 341
2 341 342
2 342 358
2 342 361
2 343 344
2 344 345
2 345 400
2 345 403
2 346 347
2 347 348
2 348 406
2 349 350
2 350 351
2 351 392
2 351 395
2 352 353
2 353 354
2 354 409
2 354 412
2 355 356
2 356 357
2 357 415
2 357 418
2 358 359
2 359 360
2 361 362
2 362 363
2 363 421
2 363 424
2 364 365
2 365 366
2 366 384
2 367 368
2 368 369
2 369 380
2 369 383
2 370 371
2 371 372
2 372 387
2 372 389
2 373 374
2 374 375
2 377 378
2 378 379
2 379 398
2 380 381
2 381 382
2 384 385
2 385 386
2 387 388
2 389 390
2 390 391
2 392 393
2 393 394
2 395 396
2 396 397
2 398 399
2 400 401
2 401 402
2 403 404
2 404 405
2 406 407
2 407 408
2 409 410
2 410 411
2 412 413
2 413 414
2 415 416
2 416 417
2 418 419
2 419 420
2 421 422
2 422 423
2 424 425
POINT_DATA 426
SCALARS sigma float
LOOKUP_TABLE default
6.71929e-322
6.71929e-322
0
0.500359
1.00001
1.49975
1.99967
2.49937
2.99917
3.49714
3.99693
4.49631
4.99528
5.49098
5.96496
6.42624
6.88363
7.32246
7.74236
8.13541
8.50365
4.99449
5.49261
5.99042
6.48952
6.98827
7.48577
7.98386
8.48086
8.97735
8.84214
9.21207
9.62494
8.7001
8.91967
9.15447
9.62737
10.3376
11.1062
9.23501
9.51713
9.80613
10.039
10.4966
10.9737
10.1405
10.6027
11.0845
9.58748
10.0533
10.5086
9.48143
9.84884
10.2474
11.68
12.2869
12.9108
11.6413
12.1969
12.7913
10.7635
11.7961
12.8251
10.3814
10.9892
11.5679
13.5058
14.1807
14.873
13.4747
14.1514
14.8869
10.857
11.233
11.6533
10.8335
11.1702
11.5388
10.5674
10.9099
11.2774
10.9623
11.7465
12.5952
11.2171
11.4805
11.7681
11.0164
11.064
11.1166
11.856
12.1758
12.5273
11.9087
12.2738
12.6684
12.84
12.8934
12.9519
13.2844
13.8238
14.4122
11.3008
11.5472
11.8228
11.4316
11.8194
12.2471
13.3105
13.7567
14.258
13.2212
13.5604
13.9184
12.6339
13.0384
13.4228
12.8183
13.399
14.001
14.808
15.3906
15.9741
14.5755
14.9243
15.2887
11.7376
12.413
13.1448
14.8249
12.0673
12.5308
13.0339
12.1532
12.5812
13.0355
12.4307
13.1256
13.9049
15.0482
15.2423
15.4557
15.2772
15.724
16.2016
13.4356
13.9478
14.5002
13.4687
14.3051
13.1288
15.285
15.7192
16.1787
15.3066
15.7454
16.2091
14.2356
14.5712
14.9317
14.0497
14.1945
14.3437
11.7707
12.0294
12.3152
12.103
12.7319
13.3767
11.458
11.6526
11.8305
12.7925
13.0857
13.4045
13.3146
14.0167
14.7221
13.0363
13.5187
13.9984
11.8663
11.9152
11.9695
13.6988
14.307
14.9831
13.3614
13.6009
13.8455
15.0542
14.911
15.4346
15.9508
15.0885
15.2627
15.4528
15.3269
15.7054
16.0912
14.5572
15.2721
16.0608
14.3046
14.7294
15.1758
14.3539
14.7344
15.1495
14.2101
14.4356
14.673
13.8473
14.3355
14.8389
13.6396
13.8929
14.1377
13.8653
14.3529
14.9033
13.7754
14.1564
14.5707
13.4961
13.4549
14.4751
16.6121
17.0765
17.5637
16.9001
17.6262
18.2524
16.8881
16.7396
17.2385
17.7089
12.4273
12.9302
13.4053
13.4732
13.9027
14.3315
13.1102
13.195
13.2885
15.281
15.8581
16.4496
15.0777
15.4691
15.8685
16.0654
16.6131
17.1537
16.071
16.6456
17.1645
16.2613
16.5746
16.9066
16.4026
16.8343
17.2584
15.7412
16.2358
16.7467
17.2485
17.6882
16.2475
16.2985
16.3539
14.0904
14.8812
13.7566
14.8549
15.2349
14.8677
12.6525
13.0277
13.4366
13.0948
13.9466
14.7836
0
0.499827
0.999586
1.49945
1.99946
2.49943
2.99921
3.49873
3.99844
4.49831
4.9982
5.49793
5.99685
6.49569
6.99443
7.49081
7.98599
8.48041
8.96918
9.45788
9.91911
10.4289
10.9853
9.7081
9.98385
10.2733
10.9184
11.6305
12.3891
10.5295
10.8117
11.0962
11.485
12.0254
12.6053
11.6446
12.3468
13.0885
12.8915
13.4396
14.0382
12.7684
13.1442
13.5464
13.1871
13.8213
14.4786
13.13
13.656
14.2178
14.0244
15.024
16.0877
11.8173
12.5966
13.4455
11.766
12.4456
13.1813
14.5035
15.0163
15.576
14.4566
14.8822
15.3406
13.8878
14.2574
14.6594
14.7495
15.0491
15.3772
14.5251
14.5765
14.6327
13.5016
13.8551
14.2423
13.5568
13.9538
14.3726
13.4945
13.5484
13.6074
13.9457
14.4942
15.0909
14.503
14.8189
15.1638
14.691
15.2045
15.7453
16.5439
16.4289
16.7754
17.1188
15.5669
16.0956
16.6398
15.7691
13.9343
14.2889
14.664
15.9577
16.8871
15.822
16.5027
16.9651
15.4049
16.2237
17.1114
15.1551
15.638
16.1582
17.3018
17.5014
15.7806
16.0057
16.252
16.0431
16.5346
17.0451
15.8265
16.3619
16.9402
15.7711
16.2055
16.6944
15.7902
16.2223
16.6768
14.9791
15.3616
15.7734
14.7697
14.91
15.0484
14.6479
14.9511
15.2821
15.0428
15.7481
