# vtk DataFile Version 4.1
vtk output
ASCII
DATASET POLYDATA
POINTS 27 float
3828.76 24352.4 0
5764.44 22116 0
15483.3 6341.78 0
12962.7 8954.66 0
13075.1 10323.8 0
8579.72 9049.38 0
11846.4 15247.7 0
8169.9 11623.1 0
3514.78 31042.6 0
5368.02 32774 0
23154 13101.1 0
22885 6803.66 0
19967.4 6287.74 0
20439.2 14623.8 0
7938.06 14061.4 0
5836.5 16500.8 0
36701.4 11913.6 0
34124.4 17386.5 0
39197.8 15343.3 0
36012.8 14692.6 0
26723.4 10000.4 0
29489.2 17460.4 0
29898.8 11085.2 0
32246.8 11311.1 0
37828.6 22864.8 0
37614.6 20329.2 0
32259.2 14622.3 0
VERTICES 27 54
1 0
1 1
1 2
1 3
1 4
1 5
1 6
1 7
1 8
1 9
1 10
1 11
1 12
1 13
1 14
1 15
1 16
1 17
1 18
1 19
1 20
1 21
1 22
1 23
1 24
1 25
1 26
POINT_DATA 27
FIELD FieldData 2
LAT 1 27 float
16.0651
16.8285
23.3729
23.3323
20.6212
23.0158
17.8947
22.697
15.2299
15.3081
23.2167
24.8027
24.4947
19.0411
18.585
17.7061
21.4862
18.6053
19.8135
19.4759
19.9335
16.9417
19.6471
21.5098
17.2336
17.4075
19.5849
METADATA
INFORMATION 0

Active 1 27 float
1
1
1
1
1
1
1
1
1
1
1
1
1
1
1
1
1
1
1
1
1
1
1
1
1
1
1
METADATA
INFORMATION 0
