# vtk DataFile Version 4.1
vtk output
ASCII
DATASET POLYDATA
POINTS 43 float
1456.99 26443.4 37193.8
2382.01 29412.6 36309.7
4119.44 24206.1 37184.6
4836.67 30908.6 35570.3
7328.33 24045.9 37061.7
8740.55 23038.7 36723.3
8743.92 24917.6 36884.6
9525.6 24898.2 36808
11427.3 21131.2 35817.4
13445.3 24195.5 36333.8
14012.5 22050.6 35789.2
16126.1 22356.4 35605.5
16344.3 24614.5 35855.1
17925 28898.6 34850.4
18014.5 25218.1 35493.4
19367.2 29688.3 34268.7
20619.6 28854.9 34292.2
21613.9 29442.9 33816.7
21880.1 25369.2 34769.8
22175 32988.3 30348.2
22688.9 27300.1 34222.1
23696 24593.4 34439.1
24610.1 31213.4 18325.8
24953.9 30816.2 31745.7
25385.2 29691 17429.3
25780.4 26256.8 33670.3
26623.6 29441.6 17757.1
27618.7 30323.1 30969.8
27748.3 30844.5 19697.6
28097.6 26144.5 32789
29695.7 27392.8 18091.4
29907.9 31449.4 22801.4
30098.3 31237.4 27225.6
30937.1 31200.1 23287.9
31281.2 28126.8 19505
31348.3 25725.6 31422.3
31627.9 30664.9 23036.5
31879.2 27952.8 30339.1
32609.2 29884.2 22682.2
33175.4 25580.7 30171.5
33618.7 29945.4 24877
35130.6 26053.9 28490.9
35220 28271.1 26339.9
VERTICES 43 86
1 0
1 1
1 2
1 3
1 4
1 5
1 6
1 7
1 8
1 9
1 10
1 11
1 12
1 13
1 14
1 15
1 16
1 17
1 18
1 19
1 20
1 21
1 22
1 23
1 24
1 25
1 26
1 27
1 28
1 29
1 30
1 31
1 32
1 33
1 34
1 35
1 36
1 37
1 38
1 39
1 40
1 41
1 42
POINT_DATA 43
FIELD FieldData 2
LAT 1 43 float
16.0608
14.9831
15.1758
13.8455
15.1495
14.673
13.4961
13.4549
14.9033
13.4053
14.5707
14.3315
13.2885
11.8305
13.4366
14.8389
13.7566
14.1377
14.7836
14.4751
14.8812
16.4496
15.4528
13.1288
16.0912
15.8685
15.9508
14.3051
15.0542
17.1537
17.2584
14.8677
14.8249
15.2349
16.9066
17.1645
16.2358
16.3539
17.7089
17.6882
16.8881
18.2524
17.5637
METADATA
INFORMATION 0

Active 1 43 float
1
1
1
1
1
1
1
1
1
1
1
1
1
1
1
1
1
1
1
1
1
1
1
1
1
1
1
1
1
1
1
1
1
1
1
1
1
1
1
1
1
1
1
METADATA
INFORMATION 0
