# vtk DataFile Version 4.1
vtk output
ASCII
DATASET POLYDATA
POINTS 20 float
26098.3 44315.5 17345.9
26130.3 43936.9 33791
26969 44273.1 32401.3
28416.1 42700.8 34793.2
29302.6 43085.8 16926.4
29433.2 44410.3 22500
29805.6 42713.8 33732.4
29822.5 43613.3 19434.6
30816.1 43654.9 29212.2
31045 42819.7 33390.8
31382.2 42751.6 17079.5
31388.3 43131.3 19859.7
32418.8 42736.9 31482.1
32586.6 43303.1 27653.7
32706.1 42859.2 29591.9
32885.1 43036.8 21884.5
33217.5 42708.8 19875
34524.2 43122.7 28539.6
34680.2 42681 23824.1
34909.7 42827.7 25701.2
VERTICES 20 40
1 0
1 1
1 2
1 3
1 4
1 5
1 6
1 7
1 8
1 9
1 10
1 11
1 12
1 13
1 14
1 15
1 16
1 17
1 18
1 19
POINT_DATA 20
FIELD FieldData 2
LAT 1 20 float
14.664
15.7734
15.0484
16.6768
15.7691
14.2423
16.6944
15.2821
15.7453
16.9651
16.6398
15.7481
16.8871
16.1582
16.5439
16.252
17.0451
17.5014
16.9402
17.1114
METADATA
INFORMATION 0

Active 1 20 float
1
1
1
1
1
1
1
1
1
1
1
1
1
1
1
1
1
1
1
1
METADATA
INFORMATION 0
