# vtk DataFile Version 3.0
Tree
ASCII
DATASET POLYDATA
POINTS 950 float
2602.07 49129 19878
2796.85 49091.2 19714.3
3179.46 49011.2 19393.7
3187.7 48937.4 19076.1
3590.86 48853.8 18768.5
3992.51 48761.1 18444.8
4382.49 48658.1 18109.6
4649.66 48565.8 17828.3
4800.11 48486.6 17603.6
4802.34 48366.3 17256.2
5000.96 48300.5 17111.2
5199.59 48234.7 16966.2
5590.34 48103.8 16701.2
5984.42 47967.5 16441.1
6348.86 47830.4 16183.2
6382.28 47713.6 15920.3
6789.71 47569.2 15658.7
7150.39 47421.5 15383.8
7181.06 47304.1 15121.9
7584.96 47153.3 14852
7851.5 47016.9 14591.9
7998.16 46913.1 14384
7991.25 46768.8 14059.4
8351.2 46616.9 13788.9
8382.28 46493.1 13532.3
8787.26 46330.5 13282.4
9145.01 46155.9 13028.8
9293.06 46142.8 13036.8
9582.36 45997.1 12856.2
9848.32 45795 12604.6
9989.16 45647.2 12424.1
10255.2 45430.8 12184.5
2407.28 49166.8 20041.7
2798.67 49164.9 20053.5
2798.11 49238.8 20408
3206.65 49293.7 20767.3
3227.33 49351.1 21086.5
3451.43 49390.2 21396.5
3742.5 49377.9 21433
3963.73 49411.4 21748.2
3981.6 49453.6 22076.5
4387.16 49475.3 22453.1
4390.86 49513.9 22838.2
4394.11 49543.7 23224.9
4396.46 49565 23615.2
4397.97 49578.7 24008.6
4398.84 49586.9 24404.2
4399.21 49590.9 24801.3
4798.66 49587.3 25198.2
5197.21 49576.2 25592.4
5594.01 49552.5 25981
5988.29 49510.9 26361.9
6377.72 49452.1 26724.3
10326.8 45355.2 12098.2
10550.7 45395.5 12207.6
10697 45377.9 12218.8
11208.3 45319.2 12261.5
11595 45297.3 12323.3
12002.3 45287.4 12404.4
12405.3 45210.2 12389.7
12814.5 45328.9 12642.9
13198.1 45304.7 12694.6
13584.1 45283.8 12752.6
13787.5 45277.8 12792
13990.9 45271.9 12831.4
14144.2 45385.2 13029.6
14437.4 45348.4 13053.1
14791.7 45479.5 13343
15198.8 45583.8 13621
15605.6 45679.5 13903.8
15795.9 45661.8 13935.2
15986.3 45644.1 13966.6
16246.9 45753.9 14245.4
16540 45713.9 14275.2
16834 45672.5 14305.4
17152.4 45774.4 14619.9
17436 45737.5 14660.5
17719.1 45698.2 14704
17942.7 45779.6 14981.9
18222.6 45735.7 15029.5
18512.9 45693.3 15099.3
18813.7 45652.8 15190.8
19180.2 45557.9 15223.1
19544.3 45455.8 15259
19837.9 45402.6 15361.9
20133.5 45345.6 15466.6
20432.3 45285.9 15571.7
20823.9 45149.9 15591.6
21182.2 45077.9 15708.2
21453.8 45015.3 15775
21740.8 44959.1 15858.1
22043.1 44909.1 15957.4
22419.1 44806 15990.6
22803.7 44704.1 16023.3
23172.2 44651.7 16133.1
23452.8 44604.6 16201
23733.1 44554.6 16263.8
24012.2 44501.7 16322.6
24230.2 44579.4 16614.5
24353.9 44657.8 16862.6
24646.9 44611.8 16964
24938.4 44564.5 17067.2
25228.5 44515.8 17172.2
25595.2 44400.6 17186.1
25966.7 44296.2 17231.7
6513.73 49424.4 26868.7
6937.56 49379 26968.9
7224.82 49360.5 26922.8
7602.87 49283.3 27224.4
8001.85 49246.6 27210.9
8397.96 49208 27200.1
8790.88 49168.6 27189
9183.57 49127.1 27179.8
9580.19 49083.6 27173
9864.39 49007.1 27462.3
10042.4 48952.1 27658.1
10423.7 48900.6 27658.2
10806.2 48854.5 27619.5
11198.1 48802.9 27597.1
11586.3 48750.8 27576
11972.6 48696.3 27565.1
12360.8 48640.8 27556.6
12453.2 48609.2 27648.8
12545.7 48577.6 27741
12826.6 48482 28014.1
13219.3 48431.2 28002.6
13611.2 48386 27987.1
14005.3 48344.5 27973
14395.5 48311.4 27936.1
14755.6 48219.1 28227.2
15042.6 48197.7 28197.2
15186.4 48187.2 28179
15330.3 48176.7 28160.8
15617.9 48155.5 28117.4
15993.6 48062.3 28410.3
16386.7 48023.1 28391.7
16775.9 47981.1 28368.1
17162.9 47933.9 28352.5
17538.7 47883.4 28337.2
17898.1 47828 28329.6
18219.9 47772.8 28320.6
18492.2 47707.8 28393.3
18819.7 47639.7 28374.9
19186.5 47560.6 28364.6
19552.9 47481.1 28351.1
19913.9 47403.2 28330.3
20107.4 47330.6 28502.9
20390.5 47211.8 28777.9
20775.9 47122.5 28762.3
21155 47035.8 28747
21334.4 46956 28930.8
21602.2 46830.3 29201.8
21977 46741.3 29178.7
22351.1 46651.9 29154.9
22531.7 46566.2 29333.7
22800.9 46434.8 29601.6
23159.1 46258.6 29959.7
23337.4 46169.8 30138.1
23604.1 46034.4 30403.8
23960.1 45850.7 30755.7
24138.1 45755.9 30929.5
24402.3 45608.1 31182.4
24774.5 45508.2 31158.3
25036.3 45347.2 31419.5
25210.1 45228.8 31596.5
25468.5 45041.6 31859.5
25631.2 44914.4 32031.9
25992.7 44792.8 32014.4
26245.8 44602.5 32243
26417.7 44464.3 32411.7
26808.6 44331 32384.7
16388.2 45617.2 14053.1
16805.9 45514.2 14017.8
17203.6 45484.9 14105.9
17577.9 45445.5 14176.5
17964.6 45528.7 14485.6
18341.9 45441.6 14499.5
18646.7 45402.3 14582.8
18935.9 45354.5 14654.7
19209.7 45298.1 14714.6
19569.7 45231.5 14824.8
19961.6 45097.7 14841.6
20260.5 45037.5 14944.2
20555.7 44978 15048.3
20848.4 44920.2 15152.4
21209.7 44806.8 15191.6
21573.5 44694.6 15228.1
21874.3 44639.5 15325.6
22165.9 44581.8 15404.6
22448.3 44521.5 15464.8
22814.7 44472.5 15588.8
23216.8 44350.4 15584.9
23601.5 44303.5 15706.1
23949.7 44238.5 15772.5
24227.3 44186.9 15827
24517.9 44139 15899.9
24821.4 44094.5 15991.4
25192.6 43995.9 16019.5
25562.2 43897.4 16050.1
25861.5 43850.3 16148
26149.2 43795.9 16226
26425.6 43734.2 16283.8
26793.1 43666.2 16396.2
27202.6 43540.7 16409
27568.7 43473.2 16526
27842.2 43413 16590.2
28124.4 43359.2 16677.8
28415.2 43311.6 16789.5
28788.1 43203.3 16811.5
29160.6 43097.2 16834.6
29448.3 43050.4 16951.1
14393.5 45191.3 12817.3
14802.5 45302.2 13084.8
15185.7 45269.1 13142.4
15589.1 45246.1 13223.3
16009.1 45141.6 13190.9
16411.2 45117.7 13273.9
16792.2 45082.5 13335.6
17195 45185.2 13616.8
17593.7 45281.4 13907
17968.1 45240.8 13982.1
18361 45206.3 14089.9
18773 45086.5 14080.2
19143.5 45027 14172.3
19417.8 44972.9 14234.8
19703.8 44916.5 14314.5
20002.1 44859 14410.4
20383.6 44724.2 14425.9
20682.4 44663.7 14526.6
20965.8 44600.4 14610.9
21234.8 44535.3 14677.8
21593.2 44462.8 14790.6
21986.9 44329.8 14802.9
22289.7 44275.8 14898.5
22578.7 44223.2 14979.7
22854.4 44172.3 15046.5
23220.7 44118.2 15151.1
23606.9 44019.7 15173.8
23991.7 43924.5 15196.8
24362 43888.4 15324.6
24506.7 43862.9 15353.6
24651.4 43837.5 15382.6
24938 43786.5 15441
25221.7 43734.8 15500.1
25591.4 43681.7 15612
25982 43583.4 15647.2
26356.3 43475.9 15655.3
26648.3 43432.3 15755.6
26941.1 43385.8 15854.5
27235.2 43337.3 15951.7
27610.3 43227.4 15962.3
27997 43129 16005.3
28358.6 43072.8 16129
28632 43020.6 16193.5
28916.4 42973.6 16281.1
29211 42933.5 16392.7
29579.5 42854 16442.8
29943.8 42768.7 16464.7
30231.2 42736.1 16583.6
30509.2 42736.2 16720
30775.5 42773 16877.1
31074.9 42843.4 17017.6
31332.1 42937.5 17128.5
15602 48096.3 28441
15992.8 47992.5 28783.4
16384 47887.8 29118.9
16744.4 47788.9 29410.3
17029.9 47762.2 29378.1
17314.7 47733.9 29337
17598.2 47702.6 29286.2
17966.6 47573.9 29565.1
18356.3 47505.6 29546.2
18633.9 47384.1 29819.2
18814.1 47298.3 30000.4
19175.5 47127.4 30335.9
19551.6 47046.4 30329.1
19722.7 46957.2 30514.2
19991.6 46822.5 30779.8
20375.9 46739.8 30764.8
20757.6 46655.6 30750.3
20935 46566.6 30928.6
21201.5 46432 31194.3
21582.3 46345.8 31176.8
21962.2 46258.5 31158.2
22139.8 46166.9 31334.9
22405.3 46025.3 31597.6
22784.1 45933.2 31576.2
23049.4 45785.3 31837.4
23225.4 45680 32009.2
23607 45575.9 31988
23867 45406 32249.4
24029 45288.2 32422.3
24392.6 45176.4 32409.8
24645.7 44995.7 32639.9
24816.5 44862.2 32808.8
25070.8 44657.6 33063.3
25231 44522.1 33232.2
25594 44398.3 33218
25842.8 44202.7 33443.3
26009.6 44063.1 33608.9
26388.4 43934.9 33584.6
26555.4 43795.9 33750.5
26805 43601.8 33975.3
27168.5 43480.7 33959.9
27330.1 43348.6 34127.5
27601.7 43141.7 34388.5
27753.1 43010 34581.1
27994.3 42846.9 34804.4
28348.6 42768.4 34766.6
12843.8 48554.5 27640.8
13234 48503.3 27633.3
13621.8 48457 27623.1
14009.7 48416.1 27603.3
14397.9 48378.7 27580.3
14784.4 48342.2 27560.2
15173.5 48303.3 27546.1
15557.7 48265.7 27517.1
15946.6 48218.4 27525
16293.8 48188.6 27420.5
16549.3 48160.7 27359.5
16756.9 48102.6 27553.8
17182.6 48035.5 27570.4
17567.3 47973.9 27572.8
17935.1 47911.6 27570.3
18288.1 47847.8 27562.4
18574.8 47765.5 27823.3
18808.2 47697.8 27972.3
19200.6 47611 27972.4
19562.5 47531.4 27965.2
19905.3 47456.3 27951.9
20210.5 47389.7 27931.2
20498.9 47315.5 27976.1
20837.8 47235 27978
21193.8 47153.4 27969.2
21552.3 47072.4 27954.8
21908.2 46992 27933.6
22099 46919.4 28106.3
22372.2 46801.5 28380.4
22554.3 46755.2 28373
22736.5 46708.9 28365.7
22998.8 46591.9 28631.5
23204.1 46505.1 28792.3
23587.2 46402.6 28788.4
23940.4 46309.6 28773.9
24196 46188 29033.9
24399.3 46098 29193.5
24785.7 45988.6 29191.9
25170.7 45878 29189.6
25374.3 45786.6 29348.6
25625.8 45656.6 29605.8
25926.3 45486 29960
26174.9 45346.3 30212.5
26370.1 45237.8 30363.5
26729.9 45109.5 30351.3
26974.7 44945.6 30604.8
27169.1 44821.5 30755
27537.9 44679 30735.8
27710.9 44556.6 30902.6
27966.6 44370.4 31159.5
28323 44240 31128.5
28497.7 44119.1 31290.2
28752.9 43941.1 31521.4
29100.3 43811.7 31499.6
29272.2 43686.7 31669.5
29539.9 43492.5 31932.6
29719 43365.7 32106.2
29979 43194.9 32340.7
30227.1 43038.4 32587.7
30378.2 42944.7 32781.5
30641.8 42835.6 33025.1
30787.7 42802 33159.9
31031.8 42888.8 33225.8
23058 46627.1 28353.6
23319.7 46543.8 28428.3
23633.8 46460.8 28413.6
23984.3 46367 28398.5
24362.3 46263.2 28391.6
24569.9 46176.6 28550.3
24828.6 46123.3 28429.4
25184.8 46022.5 28397
25535.6 45920 28374.6
25846.2 45827.5 28354.4
26104.1 45733.6 28422.4
26257.6 45684.6 28411.7
26411.2 45635.5 28400.9
26747.9 45523.3 28385.8
27002.9 45386.4 28648.7
27207.3 45280.9 28798.8
27560.3 45144.8 28786.6
27861.2 45028.2 28762.4
28108.2 44911.6 28824.6
28397 44793.5 28797.5
28631.3 44635.6 29056.4
28827.5 44516.8 29205.5
29174.7 44369 29192.9
29472.7 44245.6 29167.9
29719.2 44124.7 29229.9
29864.8 44064.9 29216.5
30010.3 44005.2 29203.1
30302.5 43886.5 29177.7
30548.4 43768.3 29242.8
30698.3 43709.3 29231.9
30848.2 43650.3 29221
2988.16 49051.2 19554
3547.68 49002.6 19402.3
3847.81 48993.3 19410.1
4147.43 48983.1 19419.4
4446.56 48972.4 19429.8
4812.47 48959 19445.3
5194 48945.7 19468
5581.07 48934.2 19505.8
5990.62 48928.4 19587.9
6404.97 48899.5 19566.4
6803.05 48877.5 19587.3
7202.08 48850.8 19593.9
7598.51 48823.1 19606.5
7995.29 48792.4 19615.9
8391 48759.6 19624.8
8786.53 48724 19633.2
9181.87 48686.8 19646.2
9566.37 48651.9 19679.2
9948.84 48608.9 19677.5
10245.9 48590 19770.1
[...]
CELL_DATA 949
FIELD FieldData 4
LAT 1 949 float
0.25723
0.510003
0.673086
0.93006
1.19212
1.45435
1.65374
1.79463
1.97845
2.23302
2.47799
2.72372
2.95724
3.10205
3.35467
3.59315
3.73747
3.99179
4.1901
4.32749
4.50514
4.74273
4.88603
5.13747
5.37347
5.4479
5.63331
5.84241
5.97866
6.18784
0.128615
0.261602
0.442663
0.716075
0.878564
1.07082
1.21762
1.41089
1.57664
1.85357
2.0471
2.24103
2.43647
2.63329
2.83113
3.0297
3.31125
3.59159
3.86954
4.14444
4.41204
6.25543
6.38166
6.45555
6.71377
6.90988
7.11758
7.32288
7.57069
7.7646
7.96005
8.16732
8.30481
8.45303
8.69112
8.94306
9.19536
9.38909
9.58765
9.73631
9.88552
10.115
10.2594
10.404
10.5869
10.7306
10.8814
11.0399
11.2298
11.4198
11.5776
11.7369
11.8981
12.1056
12.2974
12.4407
12.5927
12.7538
12.9494
13.149
13.3431
13.4893
13.6351
13.7802
13.9664
14.1105
14.2672
14.4236
14.5798
14.7721
14.9664
4.51219
4.73113
4.87689
5.12176
5.3222
5.52127
5.71879
5.91628
6.11581
6.32216
6.4573
6.64968
6.84328
7.04124
7.23736
7.4325
7.62862
7.76296
7.9646
8.16266
8.36007
8.55833
8.755
8.99108
9.13575
9.28113
9.42694
9.66965
9.86739
10.0635
10.2586
10.4483
10.6302
10.7935
10.9381
11.1056
11.2933
11.4809
11.6658
11.8005
12.0065
12.2045
12.3991
12.5336
12.7342
12.9271
13.1198
13.2539
13.4549
13.723
13.8567
14.0567
14.3233
14.4564
14.6537
14.8467
15.0484
15.1858
15.3926
15.5271
15.718
15.9133
16.0521
16.2591
9.29223
9.59499
9.81082
10.015
10.2065
10.4575
10.6512
10.8104
10.9613
11.1043
11.2954
11.5027
11.6635
11.8228
11.9808
12.1712
12.3624
12.5229
12.6767
12.8242
13.0191
13.2292
13.4323
13.6125
13.7562
13.9079
14.068
14.2605
14.4524
14.6116
14.7631
14.9076
15.1028
15.317
15.5121
15.6558
15.806
15.9635
16.158
16.352
16.5089
8.06368
8.37002
8.62059
8.81504
9.02108
9.23809
9.44372
9.63751
9.88844
10.1397
10.3317
10.5361
10.7507
10.9439
11.0871
11.2382
11.3975
11.6
11.7605
11.9117
12.054
12.2454
12.4532
12.6143
12.7667
12.9108
13.1032
13.3028
13.5013
13.698
13.8478
13.9962
14.1434
14.3383
14.5405
14.7353
14.8912
15.0474
15.2042
15.3997
15.6004
15.7935
15.9364
16.087
16.2458
16.4359
16.6233
16.7797
16.9345
17.0902
17.2593
17.407
9.20844
9.45824
9.72316
9.9861
10.2231
10.3673
10.5119
10.6568
10.8966
11.0946
11.2986
11.4333
11.6943
11.8867
12.0204
12.221
12.4177
12.6133
12.7467
12.9465
13.1419
13.337
13.4704
13.6701
13.8653
14.0656
14.1994
14.3975
14.6004
14.7327
14.923
15.1165
15.2539
15.4608
15.5955
15.7874
15.9816
16.1183
16.3186
16.4553
16.6493
16.841
16.9749
17.1898
17.3288
17.5123
17.6947
7.69579
7.89301
8.08982
8.28516
8.48044
8.67578
8.87015
9.06579
9.25936
9.45528
9.63718
9.76926
9.91437
10.13
10.3248
10.5113
10.6907
10.8889
11.0314
11.2324
11.4177
11.5933
11.7498
11.9004
12.0745
12.2572
12.4411
12.6239
12.7576
12.9598
13.1479
13.3436
13.481
13.6793
13.8621
14.0542
14.1911
14.3919
14.5922
14.7292
14.9204
15.1678
15.3583
15.4931
15.6842
15.8785
16.0161
16.214
16.3489
16.5526
16.743
16.8765
17.0703
17.256
17.3921
17.6034
17.7433
17.938
18.1298
18.2613
18.4489
18.5496
18.6832
13.0539
13.3139
13.4562
13.6188
13.8004
13.9964
14.1341
14.2793
14.4651
14.6482
14.8105
14.9519
15.1135
15.2911
15.4866
15.6239
15.8132
15.975
16.115
16.2716
16.4633
16.6
16.7888
16.9506
17.0913
17.2492
17.4074
17.5477
17.7091
13.7729
15.0327
17.1703
17.6284
2.10573
0.383617
0.674496
0.824683
0.974652
1.1244
1.30764
1.49886
1.6934
1.90227
2.11023
2.30985
2.50983
2.70863
2.90767
3.10625
3.30486
3.50351
3.69726
3.8897
4.04556
4.20213
4.35958
4.55596
4.75092
4.94625
5.14306
5.33983
5.53554
5.73116
5.92836
6.08665
6.23655
6.37843
6.56967
6.77375
6.97274
7.16519
7.35057
7.51642
7.70823
7.85537
8.04358
8.23388
8.42363
8.61026
8.7551
8.94513
9.10711
9.28987
9.48569
9.63429
9.83622
10.0034
10.176
10.3427
10.4908
10.646
10.8207
10.9947
11.1496
11.2979
11.4663
11.6409
11.7993
11.9392
12.1009
12.2905
12.4391
12.6298
12.7879
12.9591
13.1175
13.3084
13.4577
13.649
13.8127
13.9532
14.1117
14.2833
0.591544
0.801983
1.01271
1.22232
1.4195
1.61598
1.81396
2.01568
2.21769
2.41744
2.6163
2.81452
3.01275
3.21046
3.40951
3.6147
3.80741
3.95074
4.10189
4.26141
4.4601
4.65752
4.85389
5.05041
5.24706
5.44395
5.63729
5.83002
5.98599
6.14172
6.29711
6.48832
6.68044
6.8771
7.07194
7.26391
7.454
7.60178
7.79368
7.95881
8.14309
8.33457
8.52619
8.67814
8.83211
8.98783
9.18314
9.36463
9.53507
9.685
9.84228
10.0218
10.2154
10.3633
10.5034
10.6975
10.878
11.0378
11.1784
11.3387
11.514
11.6726
11.8627
12.0103
12.1991
12.3616
12.5035
12.6671
12.8593
13.0127
13.1662
13.3198
13.5122
13.6766
13.8195
13.984
14.1766
14.3304
14.4843
14.6383
14.8317
14.9965
15.1378
15.2967
15.4683
15.6267
15.7667
15.9282
16.1165
16.2484
0.195109
0.446833
0.646657
0.849527
1.05187
1.2496
1.44444
1.63822
1.9077
2.10509
2.30739
2.49978
2.64394
2.7949
2.95317
3.14735
3.34195
3.54089
3.73932
3.93714
4.1353
4.33521
4.54027
4.73304
4.87601
5.02677
5.18559
5.38278
5.57813
5.77344
5.96961
6.1646
6.35558
6.54006
6.70626
6.89819
7.0461
7.23542
7.42658
7.61893
7.81014
7.99842
8.14469
8.33515
8.49714
8.67664
8.85815
9.02
9.21231
9.36172
9.55898
9.75568
9.90346
10.1044
10.2705
10.4423
10.6086
10.8094
10.9564
11.1485
11.3272
11.4959
11.698
11.846
12.0408
12.2257
12.4163
12.5627
12.7639
12.9323
13.107
13.2656
13.456
13.6034
13.798
13.9823
14.1235
14.3076
14.4652
14.6501
14.7907
14.9837
15.1429
15.2998
15.4539
15.699
15.8501
16.0005
16.1512
16.3016
16.4511
16.5994
16.7453
16.8866
17.0203
17.1427
17.2509
17.345
17.431
13.9018
14.1934
14.3339
14.5739
14.7753
14.9079
15.101
15.2957
1.72418
1.98256
2.17873
2.37509
2.57514
2.77561
2.97231
3.16791
3.36679
3.57813
3.78819
3.98135
4.16302
4.30988
4.45732
4.60538
4.80079
5.00422
5.201
5.40061
5.59719
5.80021
5.9957
6.14398
6.29135
6.43791
6.61962
6.82363
7.02719
7.22444
7.41995
7.61476
7.77399
7.92551
8.06974
8.26223
8.46529
8.66326
8.86923
9.06251
9.20556
9.35564
9.51298
9.70648
9.89723
10.0776
10.2378
10.3806
10.5476
10.7237
10.8817
11.0221
11.1874
11.3703
11.515
11.6503
11.8423
12.0058
12.1463
12.3064
12.4794
12.6391
12.7798
12.9434
13.1347
13.2838
13.4208
13.6167
13.8015
13.9448
14.0801
14.273
14.4374
14.5801
14.7443
14.9371
15.0912
15.2451
15.3986
15.5869
15.7467
16.05
16.3121
2.0064
2.3615
2.55605
2.75054
2.90864
3.05936
3.20302
3.39625
3.60164
3.8014
3.99915
4.19679
4.39522
4.5938
4.78738
4.9797
5.13559
5.29145
5.4473
5.63922
5.83213
6.02942
6.22581
6.42052
6.61552
6.90069
7.09689
7.252
7.40667
7.56099
7.75461
7.94945
8.14254
8.34262
8.49806
8.65351
8.80874
9.00666
9.18735
9.34425
9.57395
9.72804
9.89989
10.0664
10.2671
10.4139
10.6059
10.7835
10.9388
11.1688
11.3239
11.4991
11.6747
11.8305
12.0605
12.216
12.3913
12.5669
12.735
12.9359
13.0827
13.2758
13.4555
13.6139
13.7997
13.9421
14.1369
14.3262
14.4612
14.6469
14.8951
15.0896
15.2275
15.4131
15.6118
15.7535
15.9594
16.1001
16.3004
16.5404
16.6795
0.579369
0.896753
1.17146
1.36979
1.64485
1.84251
2.04178
2.24026
2.43888
2.63722
2.83547
3.03405
3.23291
3.42696
3.61974
3.77588
3.93194
4.088
4.28048
4.47422
4.67278
4.87108
5.06838
5.26572
5.46505
5.66976
5.8622
6.00481
6.15507
6.31354
6.51016
6.70627
6.90227
7.0984
7.29303
7.48575
7.63887
7.79461
7.95282
8.15519
8.34835
8.53927
8.72495
8.86769
9.06581
9.2338
9.40771
9.57553
9.7765
9.92364
10.1187
10.3137
10.4608
10.6612
10.8274
10.9994
11.1658
11.3666
11.5135
11.7056
11.8843
12.0528
12.2542
12.4014
12.5956
12.7807
12.975
13.1218
13.3202
13.487
13.6641
13.8502
13.9868
14.1783
14.4425
14.6873
14.8277
15.082
15.2212
15.4179
15.6527
15.7922
16.0232
16.2158
16.3517
16.5402
16.7351
16.8707
17.1408
17.2672
17.4468
18.0339
18.8115
17.204
18.4018
16.9534
18.0101
15.6967
15.9876
16.1837
16.3133
16.4995
16.7065
16.9021
17.0692
16.6099
17.8659
METADATA
INFORMATION 0

diameter 1 949 float
68.8608
68.8608
68.8608
68.8608
68.8608
68.8608
68.8608
68.8608
68.8608
68.8608
68.8608
68.8608
68.8608
68.8608
68.8608
68.8608
68.8608
68.8608
68.8608
68.8608
68.8608
68.8608
68.8608
68.8608
68.8608
68.8608
68.8608
68.8608
68.8608
68.8608
68.8608
68.8608
68.8608
68.8608
68.8608
68.8608
68.8608
68.8608
68.8608
68.8608
68.8608
68.8608
68.8608
68.8608
68.8608
68.8608
68.8608
68.8608
68.8608
68.8608
68.8608
68.8608
68.8608
68.8608
68.8608
68.8608
68.8608
68.8608
68.8608
68.8608
68.8608
68.8608
68.8608
68.8608
68.8608
68.8608
68.8608
68.8608
68.8608
68.8608
68.8608
68.8608
68.8608
68.8608
68.8608
68.8608
68.8608
68.8608
68.8608
68.8608
68.8608
68.8608
68.8608
68.8608
68.8608
68.8608
68.8608
68.8608
68.8608
68.8608
68.8608
68.8608
68.8608
68.8608
68.8608
68.8608
68.8608
68.8608
68.8608
68.8608
68.8608
68.8608
68.8608
68.8608
68.8608
68.8608
68.8608
68.8608
68.8608
68.8608
68.8608
68.8608
68.8608
68.8608
68.8608
68.8608
68.8608
68.8608
68.8608
68.8608
68.8608
68.8608
68.8608
68.8608
68.8608
68.8608
68.8608
68.8608
68.8608
68.8608
68.8608
68.8608
68.8608
68.8608
68.8608
68.8608
68.8608
68.8608
68.8608
68.8608
68.8608
68.8608
68.8608
68.8608
68.8608
68.8608
68.8608
68.8608
68.8608
68.8608
68.8608
68.8608
68.8608
68.8608
68.8608
68.8608
68.8608
68.8608
68.8608
68.8608
68.8608
68.8608
68.8608
68.8608
68.8608
68.8608
68.8608
68.8608
68.8608
68.8608
68.8608
68.8608
68.8608
68.8608
68.8608
68.8608
68.8608
68.8608
68.8608
68.8608
68.8608
68.8608
68.8608
68.8608
68.8608
68.8608
68.8608
68.8608
68.8608
68.8608
68.8608
68.8608
68.8608
68.8608
68.8608
68.8608
68.8608
68.8608
68.8608
68.8608
68.8608
68.8608
68.8608
68.8608
68.8608
68.8608
68.8608
68.8608
68.8608
68.8608
68.8608
68.8608
68.8608
68.8608
68.8608
68.8608
68.8608
68.8608
68.8608
68.8608
68.8608
68.8608
68.8608
68.8608
68.8608
68.8608
68.8608
68.8608
68.8608
68.8608
68.8608
68.8608
68.8608
68.8608
68.8608
68.8608
68.8608
68.8608
68.8608
68.8608
68.8608
68.8608
68.8608
68.8608
68.8608
68.8608
68.8608
68.8608
68.8608
68.8608
68.8608
68.8608
68.8608
68.8608
68.8608
68.8608
68.8608
68.8608
68.8608
68.8608
68.8608
68.8608
68.8608
68.8608
68.8608
68.8608
68.8608
68.8608
68.8608
68.8608
68.8608
68.8608
68.8608
68.8608
68.8608
68.8608
68.8608
68.8608
68.8608
68.8608
68.8608
68.8608
68.8608
68.8608
68.8608
68.8608
68.8608
68.8608
68.8608
68.8608
68.8608
68.8608
68.8608
68.8608
68.8608
68.8608
68.8608
68.8608
68.8608
68.8608
68.8608
68.8608
68.8608
68.8608
68.8608
68.8608
68.8608
68.8608
68.8608
68.8608
68.8608
68.8608
68.8608
68.8608
68.8608
68.8608
68.8608
68.8608
68.8608
68.8608
68.8608
68.8608
68.8608
68.8608
68.8608
68.8608
68.8608
68.8608
68.8608
68.8608
68.8608
68.8608
68.8608
68.8608
68.8608
68.8608
68.8608
68.8608
68.8608
68.8608
68.8608
68.8608
68.8608
68.8608
68.8608
68.8608
68.8608
68.8608
68.8608
68.8608
68.8608
68.8608
68.8608
68.8608
68.8608
68.8608
68.8608
68.8608
68.8608
68.8608
68.8608
68.8608
68.8608
68.8608
68.8608
68.8608
68.8608
68.8608
68.8608
68.8608
68.8608
68.8608
68.8608
68.8608
68.8608
68.8608
68.8608
68.8608
68.8608
68.8608
68.8608
68.8608
68.8608
68.8608
68.8608
68.8608
68.8608
68.8608
68.8608
68.8608
68.8608
68.8608
68.8608
68.8608
68.8608
68.8608
68.8608
68.8608
68.8608
68.8608
68.8608
68.8608
68.8608
68.8608
68.8608
68.8608
68.8608
68.8608
68.8608
68.8608
68.8608
68.8608
68.8608
68.8608
68.8608
68.8608
68.8608
68.8608
68.8608
68.8608
68.8608
68.8608
68.8608
68.8608
68.8608
68.8608
68.8608
68.8608
68.8608
68.8608
68.8608
68.8608
68.8608
68.8608
68.8608
68.8608
68.8608
68.8608
68.8608
68.8608
68.8608
68.8608
68.8608
68.8608
68.8608
68.8608
68.8608
68.8608
68.8608
68.8608
68.8608
68.8608
68.8608
68.8608
68.8608
68.8608
68.8608
68.8608
68.8608
68.8608
68.8608
68.8608
68.8608
68.8608
68.8608
68.8608
68.8608
68.8608
68.8608
68.8608
68.8608
68.8608
68.8608
68.8608
68.8608
68.8608
68.8608
68.8608
68.8608
68.8608
68.8608
68.8608
68.8608
68.8608
68.8608
68.8608
68.8608
68.8608
68.8608
68.8608
68.8608
68.8608
68.8608
68.8608
68.8608
68.8608
68.8608
68.8608
68.8608
68.8608
68.8608
68.8608
68.8608
68.8608
68.8608
68.8608
68.8608
68.8608
68.8608
68.8608
68.8608
68.8608
68.8608
68.8608
68.8608
68.8608
68.8608
68.8608
68.8608
68.8608
68.8608
68.8608
68.8608
68.8608
68.8608
68.8608
68.8608
68.8608
68.8608
68.8608
68.8608
68.8608
68.8608
68.8608
68.8608
68.8608
68.8608
68.8608
68.8608
68.8608
68.8608
68.8608
68.8608
68.8608
68.8608
68.8608
68.8608
68.8608
68.8608
68.8608
68.8608
68.8608
68.8608
68.8608
68.8608
68.8608
68.8608
68.8608
68.8608
68.8608
68.8608
68.8608
68.8608
68.8608
68.8608
68.8608
68.8608
68.8608
68.8608
68.8608
68.8608
68.8608
68.8608
68.8608
68.8608
68.8608
68.8608
68.8608
68.8608
68.8608
68.8608
68.8608
68.8608
68.8608
68.8608
68.8608
68.8608
68.8608
68.8608
68.8608
68.8608
68.8608
68.8608
68.8608
68.8608
68.8608
68.8608
68.8608
68.8608
68.8608
68.8608
68.8608
68.8608
68.8608
68.8608
68.8608
68.8608
68.8608
68.8608
68.8608
68.8608
68.8608
68.8608
68.8608
68.8608
68.8608
68.8608
68.8608
68.8608
68.8608
68.8608
68.8608
68.8608
68.8608
68.8608
68.8608
68.8608
68.8608
68.8608
68.8608
68.8608
68.8608
68.8608
68.8608
68.8608
68.8608
68.8608
68.8608
68.8608
68.8608
68.8608
68.8608
68.8608
68.8608
68.8608
68.8608
68.8608
68.8608
68.8608
68.8608
68.8608
68.8608
68.8608
68.8608
68.8608
68.8608
68.8608
68.8608
68.8608
68.8608
68.8608
68.8608
68.8608
68.8608
68.8608
68.8608
68.8608
68.8608
68.8608
68.8608
68.8608
68.8608
68.8608
68.8608
68.8608
68.8608
68.8608
68.8608
68.8608
68.8608
68.8608
68.8608
68.8608
68.8608
68.8608
68.8608
68.8608
68.8608
68.8608
68.8608
68.8608
68.8608
68.8608
68.8608
68.8608
68.8608
68.8608
68.8608
68.8608
68.8608
68.8608
68.8608
68.8608
68.8608
68.8608
68.8608
68.8608
68.8608
68.8608
68.8608
68.8608
68.8608
68.8608
68.8608
68.8608
68.8608
68.8608
68.8608
68.8608
68.8608
68.8608
68.8608
68.8608
68.8608
68.8608
68.8608
68.8608
68.8608
68.8608
68.8608
68.8608
68.8608
68.8608
68.8608
68.8608
68.8608
68.8608
68.8608
68.8608
68.8608
68.8608
68.8608
68.8608
68.8608
68.8608
68.8608
68.8608
68.8608
68.8608
68.8608
68.8608
68.8608
68.8608
68.8608
68.8608
68.8608
68.8608
68.8608
68.8608
68.8608
68.8608
68.8608
68.8608
68.8608
68.8608
68.8608
68.8608
68.8608
68.8608
68.8608
68.8608
68.8608
68.8608
68.8608
68.8608
68.8608
68.8608
68.8608
68.8608
68.8608
68.8608
68.8608
68.8608
68.8608
68.8608
68.8608
68.8608
68.8608
68.8608
68.8608
68.8608
68.8608
68.8608
68.8608
68.8608
68.8608
68.8608
68.8608
68.8608
68.8608
68.8608
68.8608
68.8608
68.8608
68.8608
68.8608
68.8608
68.8608
68.8608
68.8608
68.8608
68.8608
68.8608
68.8608
68.8608
68.8608
68.8608
68.8608
68.8608
68.8608
68.8608
68.8608
68.8608
68.8608
68.8608
68.8608
68.8608
68.8608
68.8608
68.8608
68.8608
68.8608
68.8608
68.8608
68.8608
68.8608
68.8608
68.8608
68.8608
68.8608
68.8608
68.8608
68.8608
68.8608
68.8608
68.8608
68.8608
68.8608
68.8608
68.8608
68.8608
68.8608
68.8608
68.8608
68.8608
68.8608
68.8608
68.8608
68.8608
68.8608
68.8608
68.8608
68.8608
68.8608
68.8608
68.8608
68.8608
68.8608
68.8608
68.8608
68.8608
68.8608
68.8608
68.8608
68.8608
68.8608
68.8608
68.8608
68.8608
68.8608
68.8608
68.8608
68.8608
68.8608
68.8608
68.8608
68.8608
68.8608
68.8608
68.8608
68.8608
68.8608
68.8608
68.8608
68.8608
68.8608
68.8608
68.8608
68.8608
68.8608
68.8608
68.8608
68.8608
68.8608
68.8608
68.8608
68.8608
68.8608
68.8608
68.8608
68.8608
68.8608
68.8608
68.8608
68.8608
68.8608
68.8608
68.8608
68.8608
68.8608
68.8608
68.8608
68.8608
68.8608
68.8608
68.8608
68.8608
68.8608
68.8608
68.8608
68.8608
68.8608
68.8608
68.8608
68.8608
68.8608
68.8608
68.8608
68.8608
68.8608
68.8608
68.8608
68.8608
68.8608
68.8608
68.8608
68.8608
68.8608
68.8608
METADATA
INFORMATION 0

length 1 949 float
257.231
252.772
163.083
513.95
524.115
524.455
398.783
140.888
367.647
254.571
489.944
491.456
467.039
289.612
505.258
476.944
288.642
508.647
396.612
274.783
355.296
475.193
286.593
502.889
472
148.846
370.834
418.19
272.509
418.346
257.231
132.987
362.122
273.412
324.978
384.512
293.607
386.543
331.484
553.875
387.047
387.861
390.887
393.642
395.686
397.122
563.118
560.678
555.897
549.793
535.207
135.185
252.472
147.778
516.428
392.219
415.414
410.591
495.626
387.824
390.892
207.267
274.992
296.434
476.191
503.878
504.599
193.733
397.112
297.314
298.432
458.991
288.857
289.106
365.858
287.293
301.57
317.005
379.963
379.846
315.625
318.732
322.324
415.021
383.611
286.615
304.028
322.095
391.29
399.211
388.065
292.516
291.567
290.091
372.514
288.101
313.444
312.825
312.337
384.62
388.576
200.3
437.868
291.523
489.739
400.892
398.133
395.046
394.984
399.056
412.694
270.278
384.762
387.207
395.916
392.248
390.278
392.24
134.337
403.271
396.139
394.803
396.529
393.336
472.154
289.356
145.376
291.628
485.414
395.487
392.172
390.18
379.485
363.724
326.625
289.235
335.011
375.374
375.169
369.895
269.264
412.17
395.918
389.188
268.952
401.195
385.915
385.37
268.197
401.877
536.272
267.401
400.074
533.211
266.229
394.468
386.126
403.343
274.869
413.501
269.023
381.804
390.554
277.682
413.886
193.733
605.516
431.659
408.393
382.933
501.997
387.473
318.411
301.814
285.893
382.335
414.452
321.702
318.621
315.993
380.7
382.455
320.973
307.572
294.975
389.904
420.25
406.057
360.384
287.568
303.409
320.101
385.098
383.722
318.408
303.009
289.041
390.274
428.491
390.223
287.311
300.343
315.129
388.932
388.004
313.902
207.267
612.672
501.134
388.916
412.074
434.016
411.272
387.565
501.866
502.426
384.01
408.879
429.174
386.384
286.486
302.207
318.568
404.912
321.065
302.373
284.735
382.661
415.741
322.091
304.764
288.208
384.763
399.21
397.067
393.394
149.756
296.902
294.365
389.898
404.314
389.516
311.809
312.53
313.52
391.014
401.332
386.283
285.715
301.274
317.571
380.293
374.794
312.726
309.66
311.369
338.137
295.475
145.376
499.588
529.846
525.89
473.903
288.548
289.137
289.711
479.655
396.092
407.864
269.569
521.899
384.783
267.383
401.242
393.384
391.145
266.8
399.671
390.827
390.244
266.752
399.438
390.422
400.605
267.543
396.112
405.95
264.605
380.605
386.856
274.814
413.883
269.352
383.793
388.487
136.686
400.645
273.372
387.955
383.452
267.684
429.763
278.14
366.935
364.854
134.337
394.443
393.616
390.687
390.553
390.675
388.74
391.293
387.124
391.845
363.808
264.16
290.217
431.275
389.609
373.046
358.806
396.283
285.06
401.886
370.621
351.182
313.067
301.158
348.335
365.339
367.819
365.482
267.398
404.56
188.087
391.332
274.842
396.594
365.527
384.341
273.685
401.59
400.578
274.022
382.498
494.836
380.886
269.585
382.186
388.653
275.232
395.839
269.689
407.494
380.77
266.989
387.641
371.359
272.103
422.609
279.807
389.568
191.739
263.001
375.14
201.459
267.326
188.087
520.049
284.615
325.215
363.149
392.054
275.287
290.488
371.604
366.153
324.71
282.761
161.552
355.224
391.002
274.664
378.524
323.607
280.13
313.19
383.221
273.566
377.559
323.506
281.467
157.907
316.41
280.493
161.461
149.756
161.552
157.907
161.461
254.571
252.772
581.758
300.375
299.938
299.502
366.483
382.436
389.081
417.738
415.913
399.235
399.977
397.596
398.077
397.166
397.218
397.299
387.489
384.883
311.732
313.124
314.911
392.751
389.936
390.657
393.614
393.54
391.415
391.244
394.401
316.59
299.785
283.769
382.474
408.157
397.978
384.915
370.747
331.707
383.623
294.273
376.419
380.6
379.499
373.27
289.674
380.054
323.971
365.518
391.635
297.199
403.861
334.282
345.286
333.326
296.246
310.441
349.431
348.01
309.752
296.582
336.797
349.253
316.664
279.902
323.376
379.225
297.273
381.237
316.359
342.413
316.68
381.922
298.581
382.54
327.304
281.1
316.912
343.347
163.083
420.878
421.449
419.22
394.356
392.963
395.958
403.448
404.023
399.508
397.716
396.428
396.463
395.415
398.111
410.378
385.425
286.658
302.288
319.044
397.393
394.842
392.738
393.026
393.314
393.778
386.669
385.476
311.931
311.457
310.774
382.429
384.245
393.308
389.68
383.944
380.186
295.558
383.798
330.26
368.559
382.972
383.237
303.903
307.941
311.433
390.611
362.991
340.882
299.854
314.565
358.943
387.391
295.684
280.287
388.199
361.03
319.494
281.265
320.608
350.462
317.265
380.235
295.128
377.711
324.841
283.871
327.271
384.275
306.802
307.173
307.089
384.851
328.707
285.945
164.454
385.227
307.584
307.715
308.126
386.842
329.586
282.47
317.843
343.202
316.72
140.02
322.996
376.593
263.823
132.987
503.448
399.649
405.74
404.684
395.461
389.682
387.559
538.967
197.388
404.601
384.785
288.318
301.912
316.541
388.37
389.192
397.88
396.858
395.633
396.323
399.817
410.121
385.551
285.937
301.517
317.648
394.367
390.709
390.629
392.324
389.994