# vtk DataFile Version 3.0
Tree
ASCII
DATASET POLYDATA
POINTS 952 float
2407.5 37111.5 26308.3
2789.58 37047.7 26651.4
3166.4 36975 26970.9
3178.97 36905.7 27285.2
3381.41 36862.2 27433.7
3583.85 36818.8 27582.2
3787.04 36772.7 27741.8
3990.23 36726.5 27901.5
4385.4 36633.5 28235.5
4747.4 36544.4 28546.4
4782.17 36455.3 28830.7
5197.02 36346 29116.3
5596.08 36333.8 29122.3
5978.4 36195.9 29405.6
6385.04 36055.4 29640.6
6804.19 35900.5 29869.7
7197.94 35873.4 29853.5
7585.52 35700.7 30102.9
7982.19 35675.9 30074.6
8410.89 35508.1 30299.5
8444.19 35365.7 30550.9
8796.68 35195.3 30790.4
9149.78 35024.7 31029.8
9448.79 35006.1 31006.6
9747.42 34986.7 30982.8
10045.7 34967.3 30958.4
10397.7 34793.3 31194.9
10590.1 34773.7 31188.9
10748.8 34615.6 31429.4
10780.5 34463.5 31676.2
10788 34276.1 31975.6
10936.4 34135 32156.1
11192.1 33938.8 32367.4
11151.5 33770.2 32595.1
11165 33681.3 32696.2
11178.5 33592.4 32797.3
11145 33412 32996.5
11168.4 33210 33185.8
11147.6 33001.5 33374.6
11193.9 32777.4 33550.2
11237.7 32548.9 33720.6
11206.1 32320.9 33893.3
11189.7 32065.2 34077.1
11157.5 31833.8 34241.9
11199.5 31598 34396.4
11241.5 31361.4 34549.5
11208.8 31126.7 34709.4
11200.1 30995.1 34796.1
11191.5 30863.6 34882.9
11158.8 30623.7 35039.2
11200.8 30375.1 35183.7
11242.9 30117.7 35322.7
11210.8 29848.9 35463.8
11195.2 29513.8 35617.5
11033.3 29321.1 35718.4
11156.3 29080.7 35783.5
11170.6 28907.9 35831.8
10811.5 28393.8 36020.7
10826.2 28046.1 36099
10560.2 27785.4 36194.6
10477.6 27680.4 36228.4
10394.9 27575.3 36262.1
10196.5 27386.6 36328.1
9998.12 27197.8 36394.1
11447.6 33723.9 32579
11741.4 33689.6 32545.8
12033.1 33668 32496.8
12389.2 33632.5 32444.2
12804 33578.6 32395.4
13222 33521.1 32349.3
13591.5 33475.2 32300.6
13943.1 33431.7 32250.9
14240.7 33392.2 32207.5
14537.4 33351.4 32163.2
14833.5 33309.3 32118.2
15187.5 33256.7 32062.9
15599.6 33194 31997.5
16011.6 33131.4 31932
16365.2 33078.2 31876.1
16660.7 33034.4 31830.1
16957.3 32991.5 31785.2
17255.1 32949.4 31741.4
17607.6 32900.2 31691.2
17979.8 32847.2 31642.2
18402.6 32782.8 31593.5
18823 32731.3 31533.9
19194.6 32689 31478.8
19554.5 32645.5 31428.2
19854.9 32585.2 31411.5
20150.8 32542.2 31377.6
20296.7 32529.2 31352
11602.5 30785.4 34877.6
12008.7 30797.5 34815.9
12393.2 30791.4 34768.5
12798.5 30804.4 34705.6
13206.9 30729 34697.8
13595.8 30678.2 34674.9
13984.6 30626.9 34650.5
14397 30355.3 34757.7
14809.8 30075.9 34850.2
15193.3 30027.8 34818.9
15574.3 29969 34791.4
15819.9 29685.8 34889.5
15947.2 29456.2 34961.6
16252.4 29381.6 34941.5
16546.3 29318.2 34916.1
16755.2 29017.1 34978.8
17034.9 28961.7 34948.9
17324.5 28884.4 34921.2
17624.3 28785.5 34895.6
18012.5 28770.8 34828
20314.9 32527.6 31348.9
20333.2 32526 31345.7
20562.8 32405.7 31411.3
20792.5 32285.4 31477
21151.3 32240.1 31426.1
21450.2 32177.1 31408.9
21744.5 32129.3 31375
22034.3 32096.9 31324.9
22360.5 31863.4 31472.1
22656.5 31822.8 31425.7
22952.8 31781.4 31379.6
23249.2 31739.4 31333.3
23589.9 31491.2 31486.6
23936.7 31436.9 31433.1
24228.8 31387.4 31387.1
24301.2 31278.6 31474.6
24373.6 31169.8 31562.2
24525.7 30948.5 31733.9
24820.3 30903.9 31671.8
9799.46 27007.4 36457.7
9726.16 26527.2 36556.4
9845.06 26240.4 36589.4
10142.3 26147.7 36566.7
10439.2 26054.9 36542.8
10550.9 25785.1 36571.3
10749.4 25460.2 36591.9
11027.5 25404.8 36564.4
11133.6 25136.5 36582.2
11422.9 25043.3 36555
11519 24766.7 36564
11796.5 24667.7 36533
11869.9 24400.6 36530.5
12112.2 24295.2 36495.1
12386.9 24046.6 36434.7
12772.6 24038.4 36371.1
13170.5 24036.1 36311.2
13366.2 24038.6 36284
13561.9 24041.2 36256.9
9988.29 27583 36319.3
9967.88 27960.7 36244.4
9854.27 28239.3 36200.2
9555.91 28335.8 36221.1
9442.28 28606.1 36171.8
9144.31 28693.2 36190.1
9027.8 28941.6 36135.8
8886.42 28964.9 36146.8
8745.05 28988.2 36157.7
8526.2 29278.9 36086.4
8234.28 29315.3 36107
7975.95 29615.4 36011.2
7777 29771.4 35959.1
7578.04 29927.3 35907
7193.78 29935.2 35939.8
7001.27 29937.3 35955.2
6808.76 29939.5 35970.6
6400.79 30220.4 35849.3
6000.39 30254.8 35859.2
5607.03 30280.5 35870.8
5246.05 30545.4 35741
5206.68 30778.6 35601.2
4795.76 31038.4 35466.4
24767.1 31107 31486
25055.5 31061.2 31423.6
25342.8 30996.7 31375.6
25628.9 30913.2 31341.8
25802.9 30875 31305
25976.9 30836.8 31268.2
26373.5 30745.5 31177.8
26750.3 30647.3 31092.8
27023.8 30567.3 31030.3
27309.8 30483.3 30957.1
27608.2 30395.7 30872.9
10762.7 27463.7 36231.3
11041.4 27407.4 36201.6
11155.4 27139.4 36238.3
11451.6 27045.9 36213.2
11747.9 26952.2 36187.8
12044.2 26858.5 36162.4
12157.6 26588.6 36197.2
12358.7 26261.8 36227.6
12636.8 26204.3 36196.5
12747.7 25932.2 36226.7
13041.7 25835.8 36197.8
13149.8 25550 36224.4
13443.9 25447.8 36194.2
13736.6 25344.4 36162.8
13840.7 25057.6 36181.7
13941.3 24772.9 36192.3
14227.9 24671 36157.8
14320.2 24393.7 36157
14315.7 24035.3 36154.9
14657.1 23749.7 36091
14748.1 23511.6 36045.5
15144.9 23242.9 35935.1
15573 22944 35814.7
15625.5 22657.2 35738.7
15989 22384.6 35612.9
20794.9 32485.3 31263.4
21188.5 32460.8 31180.5
21415.5 32501.2 31072.5
21642.6 32541.7 30964.6
21991.4 32691.3 30698.4
22343.7 32641.6 30646
22641 32598.5 30599
22936.6 32555.4 30550.6
23230.4 32511.9 30500
23547 32640.3 30224.3
23836.9 32587.6 30167.5
24127.6 32532.1 30110.3
24418.5 32473.6 30052.2
24764.4 32397.6 29982.8
25160.3 32308.9 29893.3
25545.4 32233.6 29780.9
25827.5 32161.7 29721.2
26113.9 32095.1 29640.8
26404.3 32033.3 29539.7
26762.3 31914.9 29489.4
27135.6 31926 29130.2
27446.6 31801.4 29112
27763.2 31743 28914.9
27848.6 31808.4 28641.9
27951.5 31861.9 28355.1
28203.2 31789.4 28234.3
28508.3 31717.5 28025.4
28576.4 31773.8 27752.1
28833 31693.1 27631.5
29196.4 31532.1 27603.8
29467 31449.1 27466.4
29737.3 31364.8 27330.8
30007.5 31279.2 27197
6399.06 29915 36014.3
5987.58 29981.7 36008.2
5588.04 29747.6 36142.8
5201.11 29486.6 36268
4809.48 29511.7 36266.9
4394.05 29563.5 36250.5
3978.3 29513.8 36271.8
3584.71 29496.1 36278.9
3192.8 29489.1 36282.4
2801.19 29487.2 36286.5
2412.63 29489 36294.1
8761.58 28689.6 36239.8
8387.09 28363.5 36364.1
8005.74 28030 36481.8
7737.02 27757.9 36566.5
7580.4 27536.5 36622.8
7179.19 27522.9 36660.9
6792.5 27173.8 36750
6402.55 26812.2 36835.9
6014.58 26460.3 36919
5743.07 26175 36981.7
5585.36 25945.8 37023.2
5181.12 25926.8 37051.6
5187.36 25555.7 37089.2
4793.23 25181.9 37132.6
4396.51 24800 37155.4
3998.16 24413.6 37160.8
3997.94 24029.7 37144.8
20802.2 32085.7 31684.6
21145.4 31841.6 31844.5
21443.4 31798 31806.2
21590.6 31582.1 31985.8
21739.2 31364.6 32164.5
22006.2 31129.3 32323.9
22036.3 30926.2 32516
22361.4 30683.5 32656.2
22395 30473.6 32837.4
22747 30192.6 32974.3
23043 30120 32948.3
23179.8 29873.6 33087.5
23314.8 29611.5 33213.5
23615.6 29501.3 33191.3
23733.1 29256.9 33282.6
23848.6 29001.8 33362.3
23905.6 28869.8 33397.5
23962.7 28737.8 33432.6
24251 28630.9 33392.9
24362.4 28357.1 33456.7
24650.4 28244.8 33414.4
24760.9 27962.4 33474.1
24780.3 27586.1 33583
24807 27209.7 33685.4
24917.6 26922.8 33733.3
25021.4 26634.2 33776.9
25116.6 26343.3 33815.2
25384.9 26224.2 33758.6
25517.2 26158.8 33727.2
25649.6 26093.5 33695.8
7205.61 29667.8 36065.8
6811.46 29421.2 36200.4
6399.46 29136.3 36332.5
5989.62 29138.1 36359.7
5574.85 28850.2 36476.9
5173.82 28576.4 36573.5
4791.24 28263.4 36668.1
4396.32 28268.1 36680.9
3998.55 28272.5 36692.3
3600.9 27946.3 36792.8
3196.4 27951.1 36807.9
2781.77 27657.4 36903.6
2387.58 27377.9 36989
2020.11 27058.6 37074.8
1657.18 26716.1 37161.6
1312.37 26356.3 37255.8
26233.5 30570.6 31406.2
26514.9 30504.2 31335
26793.5 30430 31266.2
26908.6 30298.9 31319
27023.7 30167.8 31371.8
27313.4 30092.1 31283.1
27618.5 29997.6 31197.3
27980.3 29885.6 31090.5
28250.9 29821.4 30992.7
28377.6 29586.4 31106.7
28659.8 29458.9 31049.4
28936.4 29361.5 30969.6
29207 29294.1 30866.9
29567.8 29171.8 30751.9
29866.8 29056.2 30665.5
30147.7 28964.5 30567.6
30410.7 28896.7 30457.5
30765.3 28775 30330.3
31067 28658.7 30229.3
31345.7 28552.1 30133
31600.9 28454.4 30040.8
31807.4 28173.4 30130.5
31927.6 27934 30227.7
23987.7 28387.5 33547.2
24011 28040.6 33652.8
24031 27725.3 33744.1
23963 27464.5 33838.6
23980.9 27144.9 33922.7
23999.3 26787.3 34011.5
23731.5 26530 34140.2
23549.7 26352.8 34220.7
23558.6 25973 34289.9
23559.9 25590.5 34348.8
23548.4 25203.5 34395.3
23510.3 24804.5 34430.4
23513.4 24390.6 34428.7
27164.1 29939.5 31481.1
27223 29622.5 31691.3
27360.1 29383.8 31794.5
27223 29205.7 31988
27342.9 28935.2 32108.7
27464.9 28657.6 32223.4
27588.2 28372.1 32330.3
27707.7 28080.4 32428.8
27825.8 27793.7 32507.5
27940.4 27510.4 32564.5
27934.9 27119.2 32675.1
27971.7 26741.8 32736.5
28008.2 26363.9 32772.3
28038.4 25975 32790.6
22001.6 32493 30912.6
22372.8 32444.2 30854
22792.2 32387 30785.4
23205.2 32329.9 30714.8
23555 32280.7 30650.1
23840.5 32240.6 30591.7
24129.6 32183.2 30548.5
24422.4 32107.7 30519.8
24778.6 32040.8 30448.9
25187.6 31964.1 30357.6
25595.8 31886.4 30262.1
25948.2 31812.8 30179.6
26236.2 31731.5 30136.6
26518.8 31663.5 30074.3
26795.2 31607.4 29991.9
27143.1 31538.8 29867
27521.5 31371.8 29851.3
27819.9 31289.1 29755.8
28106.4 31216 29642
28381.2 31152.6 29510.1
28731.3 30978.7 29475.4
29012.3 30884 29370.8
29298 30789.7 29253.4
29589 30696.2 29124.3
29934.1 30570.2 28998
30173.5 30469.1 28927.2
30481.5 30385.5 28751.8
30779.4 30218.4 28723.8
31047.7 30123.2 28608.9
31320.8 30027.3 28490.3
31598.9 29930.7 28368.7
31874.4 29838.2 28242.7
32138.2 29733.8 28141.9
32389.1 29616.5 28065.9
32591.4 29680.8 27750.3
32853.5 29566 27644
33123.9 29453.5 27506.2
33398 29318.2 27384.6
33659.9 29188.1 27248.4
33784.1 29125.6 27172.9
33908.3 29063.2 27097.4
34155.3 28916.6 26972.2
34420.2 28784.5 26752.9
34625.1 28607.5 26708.5
34874.8 28462.5 26476.7
35095.2 28286.6 26331.5
20526.1 32603.1 31210.1
21047.1 32649.8 31016.3
21196.9 32809.9 30798.6
21346.5 32975.2 30569.3
21646.4 32931.9 30530.2
21999.1 32880.7 30481
22339.9 33011.9 30209.8
22635.1 32962.8 30164.6
22928.9 32915.3 30115.1
23220.8 32868.7 30060.9
23531 32979.8 29755.7
23815.9 32911.7 29712.3
[...]
CELL_DATA 951
FIELD FieldData 4
LAT 1 951 float
0.258734
0.508413
0.66946
0.924258
1.18675
1.44961
1.69232
1.8423
2.09999
2.29963
2.54734
2.79246
3.04354
3.24105
3.48714
3.68636
3.94255
4.08797
4.31745
4.54717
4.69742
4.84752
4.99747
5.22666
1.05551
5.32341
5.48773
5.63354
5.81019
5.94667
6.13937
6.28248
6.41778
6.55319
6.69211
6.83313
6.97735
7.12154
7.26543
7.42309
7.56604
7.70855
7.85102
7.99395
8.15177
8.29586
8.44116
8.58893
8.74157
8.92607
9.06165
9.20053
9.29051
9.61799
9.79635
9.98861
10.1265
10.4081
6.35013
6.50457
6.6534
6.80169
6.98254
7.19311
7.40533
7.59308
7.77196
7.92362
8.075
8.22622
8.40729
8.61826
8.82918
9.01014
9.16127
9.31278
9.46475
9.64447
9.83404
10.0493
10.2631
10.4521
10.6352
10.7886
10.939
11.0134
8.07286
8.30336
8.50887
8.7026
8.90778
9.11547
9.31191
9.50837
9.76102
10.0145
10.2084
10.4016
10.5954
10.7315
10.8889
11.0398
11.2257
11.369
11.5195
11.6779
11.8751
11.032
11.2994
11.482
11.635
11.785
11.933
12.1466
12.2978
12.4492
12.6006
12.8249
13.0024
13.1523
13.3096
13.469
13.6212
10.5494
10.7972
10.9533
11.1094
11.2654
11.4121
11.6027
11.7452
11.8897
12.0423
12.1888
12.3369
12.4754
12.6087
12.7964
12.9919
13.1931
13.3907
10.2673
10.4105
10.6033
10.7554
10.9125
11.0612
11.2166
11.3565
11.5002
11.6856
11.833
12.0367
12.2948
12.4877
12.6808
12.9358
13.1368
13.334
13.5671
13.7045
13.9567
13.231
13.4793
13.6286
13.7778
13.9277
14.1097
14.3181
14.5174
14.6632
14.8167
14.9778
10.0575
10.2366
10.3795
10.5263
10.6821
10.838
10.9939
11.1413
11.3338
11.4766
11.6243
11.7797
11.9331
12.0895
12.2455
12.3983
12.5494
12.7024
12.8486
13.0278
13.2526
13.3821
13.628
13.8959
14.0465
14.2823
11.0227
11.2673
11.4688
11.7235
11.9553
12.1351
12.2871
12.4384
12.5891
12.8086
12.9586
13.1093
13.2605
13.4409
13.6487
13.8528
14.0013
14.1538
14.3106
14.5008
14.7599
14.9276
15.1164
15.2631
15.4178
15.562
15.7503
15.894
16.0414
16.2406
16.3979
16.5549
16.7116
12.5843
12.887
13.0955
13.3366
13.5782
13.7744
13.9839
14.1935
14.3906
14.5866
14.7824
14.9767
11.4283
11.5865
11.8424
12.1025
12.2983
12.4368
12.6384
12.9027
13.172
13.4372
13.6366
13.7773
13.9801
14.1666
14.4391
14.7147
14.9922
15.1843
11.1657
11.4078
11.633
11.7848
11.9433
12.1025
12.2975
12.4381
12.6527
12.7923
13.0277
13.1806
13.3378
13.4981
13.6587
13.8017
13.9473
14.0954
14.2504
14.4016
14.5576
14.7121
14.9082
15.1037
15.2593
15.4142
15.5684
15.7179
15.8688
12.1658
12.461
12.703
12.962
13.1674
13.4266
13.6741
13.9257
14.1233
14.3223
14.5843
14.7867
15.0453
15.2906
15.5378
15.791
16.0446
14.0187
14.2872
14.4361
14.5843
14.7665
14.9227
15.088
15.2848
15.4322
15.5773
15.7348
15.8868
16.0354
16.2343
16.4003
16.556
16.7025
16.9004
17.0698
17.2266
17.3708
17.5508
17.6933
14.0213
14.2772
14.4588
14.6233
14.7661
14.9316
15.116
15.3125
15.4457
15.6388
15.8323
16.0273
16.2284
16.4354
14.6754
14.9103
15.1027
15.2497
15.398
15.5578
15.7199
15.8843
16.0495
16.2094
16.3648
16.5681
16.7602
16.9509
17.1461
11.5962
11.8999
12.0894
12.3038
12.5152
12.6948
12.8419
12.9908
13.1427
13.3273
13.5404
13.7535
13.9382
14.0894
14.238
14.3849
14.5729
14.7798
14.9419
15.1003
15.2559
15.4522
15.6094
15.7709
15.9368
16.131
16.2657
16.4478
16.6191
16.7726
16.929
17.0883
17.2467
17.3972
17.5408
17.731
17.8836
18.0454
18.2099
18.3712
18.5294
18.6861
18.8703
19.0075
19.1926
19.3512
11.1532
11.4321
11.5866
11.7465
11.8993
12.0792
12.3066
12.4579
12.6088
12.7591
12.9836
13.1317
13.285
13.4463
13.6364
13.8918
14.0574
14.2461
14.3923
14.5439
14.697
14.8511
14.996
15.1393
15.33
15.4748
15.6304
15.7862
15.9407
16.0993
16.2995
16.4471
16.6377
16.802
17.0674
17.2322
17.4212
17.5605
17.6961
17.8697
17.999
18.2719
18.4077
18.6192
18.7652
18.9117
19.0593
19.277
19.4203
19.6351
13.2919
13.4971
13.7344
13.8812
14.047
14.2171
14.3701
15.7934
18.4503
0.796859
11.4443
11.6496
11.8004
11.9905
12.1824
12.3757
12.5697
12.7641
12.9203
13.0763
13.2322
13.4262
11.8954
12.1166
12.2496
12.4483
12.6428
12.8346
13.0246
13.214
13.347
13.55
13.7524
12.2004
12.4327
12.5954
12.7781
12.9672
13.1571
13.3449
13.5246
13.6824
13.8634
13.9997
14.1831
14.3136
14.5061
14.6859
12.8941
13.1074
13.3938
13.6649
13.819
14.0469
14.2003
14.371
14.5363
14.7363
1.12113
1.37614
1.64756
1.84914
2.04919
2.24699
2.44303
2.63775
2.8314
3.02445
3.29965
3.49179
3.63941
3.83129
3.99759
4.18367
4.37594
4.56983
4.7644
4.95924
5.15424
5.31053
5.46696
5.62322
5.77968
5.93622
6.13131
6.32627
6.52112
6.71588
6.91065
7.0669
7.22307
7.379
7.57303
7.76656
7.95981
8.15434
8.35864
8.51828
8.67449
8.82722
9.01901
9.21311
9.41003
9.60631
9.80036
9.95272
10.1027
10.2495
10.4353
10.7078
10.9747
11.1586
11.2918
11.5011
11.7129
11.8488
12.1181
12.3198
12.4537
12.73
12.8668
13.058
13.2487
13.3824
13.5836
13.7165
13.9156
14.0568
14.2392
14.3917
14.5716
14.7135
14.9257
15.067
13.8161
14.031
14.184
14.3586
14.5529
14.7074
14.863
15.0107
15.1932
15.3407
15.5239
14.2713
14.4997
14.6403
14.7853
14.9613
15.1076
15.2615
15.4191
15.5787
15.7405
15.9035
16.0582
1.24863
1.57645
1.77963
1.98142
2.17849
2.3729
2.56568
2.75704
2.93901
3.10212
3.28872
3.43679
3.62991
3.82582
4.01987
4.21369
4.40823
4.60324
4.75911
4.91509
5.07103
5.26595
5.46134
5.65747
5.85318
6.04811
6.20406
6.36016
6.51627
6.71107
6.90585
7.10057
7.295
7.48895
7.68235
7.83686
7.99406
8.15408
8.35726
8.54992
8.73935
8.9237
9.0895
9.28213
9.42996
9.61907
9.80943
10.0004
10.1916
10.3827
10.5351
10.6901
10.8474
11.0516
11.2447
11.3946
11.547
11.7017
11.9075
12.0965
12.2378
12.4354
12.695
12.9484
13.1395
13.2764
13.4756
13.6124
13.8188
13.9572
14.1651
14.3037
14.512
14.6512
14.859
14.9963
15.1997
15.4037
15.5423
15.6832
15.8956
16.0375
16.2538
16.4012
16.5547
16.7147
16.881
17.0432
17.2021
17.3664
13.9862
14.274
14.4239
14.5745
14.792
14.9334
15.1475
15.2948
15.4481
15.6075
15.7664
15.9231
16.0734
16.229
16.3899
16.5527
16.7104
16.866
17.0251
17.1857
17.3441
10.8102
11.0188
11.2139
11.4033
11.5934
11.7848
11.9396
12.0734
12.2671
12.4611
12.6553
12.8493
13.0427
13.1766
13.3291
12.4062
12.5791
12.766
12.9593
13.1578
13.4366
13.6425
11.5074
11.7567
11.9413
12.1311
12.3196
12.4664
12.6054
12.8065
12.9977
13.187
13.3743
13.5561
13.1042
13.2581
13.4026
13.5823
13.7761
13.9705
14.1069
12.3823
12.6337
12.006
12.2722
12.4283
12.5841
12.7392
12.8949
13.0511
13.2074
13.3638
13.5201
13.6763
13.8321
13.9878
14.1423
14.2967
14.4507
14.646
14.8447
12.7225
12.9105
13.0629
13.2247
13.3862
13.5385
13.718
13.9451
14.0991
14.2602
14.4133
14.5598
14.7378
9.0066
9.23078
9.39681
9.58155
9.7714
9.96291
10.1548
10.3087
10.4624
10.616
10.8097
11.0152
11.1736
11.3281
11.4783
11.6691
11.8734
12.0297
12.1861
12.3426
12.5517
12.7443
12.8905
13.0341
13.175
13.3826
13.5237
13.7125
13.8835
14.0702
14.2087
14.4307
14.5716
14.7805
14.9169
15.1854
13.5784
13.6954
13.8916
14.0739
14.2597
14.3925
14.5934
14.7869
14.9212
13.7069
13.8873
14.0521
14.3254
14.5197
14.6975
14.9662
15.143
1.57096
1.8245
1.97366
2.12201
2.30262
2.48872
2.66819
2.81367
2.95903
3.10451
3.30123
3.51705
3.7191
3.9153
4.10441
4.29536
4.45028
4.60619
4.76308
4.95829
5.15196
5.34458
5.53873
5.74334
5.90295
6.05997
6.2145
6.40797
6.60172
6.79584
6.9905
7.18542
7.38027
7.5362
7.69223
7.84815
8.04273
8.23797
8.4333
8.62741
8.82065
8.97504
9.13238
9.29259
9.49658
9.6907
9.88329
10.0759
10.2306
10.3849
10.5386
10.7278
10.9124
11.0786
11.2706
11.4167
11.6008
11.7817
11.9458
12.1362
12.2822
12.4724
12.6772
12.8343
12.9854
13.13
13.3048
13.4675
13.6533
13.7979
14.0036
14.142
14.3288
14.4979
14.6916
14.8378
15.0618
15.1975
15.3839
15.5796
15.7181
15.1846
15.412
15.5536
15.7541
15.8894
16.0938
15.6488
15.8994
16.0416
16.1845
16.3429
18.6077
19.884
16.9851
18.6853
17.1482
19.0312
18.6469
20.3959
METADATA
INFORMATION 0

diameter 1 951 float
68.8608
68.8608
68.8608
68.8608
68.8608
68.8608
68.8608
68.8608
68.8608
68.8608
68.8608
68.8608
68.8608
68.8608
68.8608
68.8608
68.8608
68.8608
68.8608
68.8608
68.8608
68.8608
68.8608
68.8608
68.8608
68.8608
68.8608
68.8608
68.8608
68.8608
68.8608
68.8608
68.8608
68.8608
68.8608
68.8608
68.8608
68.8608
68.8608
68.8608
68.8608
68.8608
68.8608
68.8608
68.8608
68.8608
68.8608
68.8608
68.8608
68.8608
68.8608
68.8608
68.8608
68.8608
68.8608
68.8608
68.8608
68.8608
68.8608
68.8608
68.8608
68.8608
68.8608
68.8608
68.8608
68.8608
68.8608
68.8608
68.8608
68.8608
68.8608
68.8608
68.8608
68.8608
68.8608
68.8608
68.8608
68.8608
68.8608
68.8608
68.8608
68.8608
68.8608
68.8608
68.8608
68.8608
68.8608
68.8608
68.8608
68.8608
68.8608
68.8608
68.8608
68.8608
68.8608
68.8608
68.8608
68.8608
68.8608
68.8608
68.8608
68.8608
68.8608
68.8608
68.8608
68.8608
68.8608
68.8608
68.8608
68.8608
68.8608
68.8608
68.8608
68.8608
68.8608
68.8608
68.8608
68.8608
68.8608
68.8608
68.8608
68.8608
68.8608
68.8608
68.8608
68.8608
68.8608
68.8608
68.8608
68.8608
68.8608
68.8608
68.8608
68.8608
68.8608
68.8608
68.8608
68.8608
68.8608
68.8608
68.8608
68.8608
68.8608
68.8608
68.8608
68.8608
68.8608
68.8608
68.8608
68.8608
68.8608
68.8608
68.8608
68.8608
68.8608
68.8608
68.8608
68.8608
68.8608
68.8608
68.8608
68.8608
68.8608
68.8608
68.8608
68.8608
68.8608
68.8608
68.8608
68.8608
68.8608
68.8608
68.8608
68.8608
68.8608
68.8608
68.8608
68.8608
68.8608
68.8608
68.8608
68.8608
68.8608
68.8608
68.8608
68.8608
68.8608
68.8608
68.8608
68.8608
68.8608
68.8608
68.8608
68.8608
68.8608
68.8608
68.8608
68.8608
68.8608
68.8608
68.8608
68.8608
68.8608
68.8608
68.8608
68.8608
68.8608
68.8608
68.8608
68.8608
68.8608
68.8608
68.8608
68.8608
68.8608
68.8608
68.8608
68.8608
68.8608
68.8608
68.8608
68.8608
68.8608
68.8608
68.8608
68.8608
68.8608
68.8608
68.8608
68.8608
68.8608
68.8608
68.8608
68.8608
68.8608
68.8608
68.8608
68.8608
68.8608
68.8608
68.8608
68.8608
68.8608
68.8608
68.8608
68.8608
68.8608
68.8608
68.8608
68.8608
68.8608
68.8608
68.8608
68.8608
68.8608
68.8608
68.8608
68.8608
68.8608
68.8608
68.8608
68.8608
68.8608
68.8608
68.8608
68.8608
68.8608
68.8608
68.8608
68.8608
68.8608
68.8608
68.8608
68.8608
68.8608
68.8608
68.8608
68.8608
68.8608
68.8608
68.8608
68.8608
68.8608
68.8608
68.8608
68.8608
68.8608
68.8608
68.8608
68.8608
68.8608
68.8608
68.8608
68.8608
68.8608
68.8608
68.8608
68.8608
68.8608
68.8608
68.8608
68.8608
68.8608
68.8608
68.8608
68.8608
68.8608
68.8608
68.8608
68.8608
68.8608
68.8608
68.8608
68.8608
68.8608
68.8608
68.8608
68.8608
68.8608
68.8608
68.8608
68.8608
68.8608
68.8608
68.8608
68.8608
68.8608
68.8608
68.8608
68.8608
68.8608
68.8608
68.8608
68.8608
68.8608
68.8608
68.8608
68.8608
68.8608
68.8608
68.8608
68.8608
68.8608
68.8608
68.8608
68.8608
68.8608
68.8608
68.8608
68.8608
68.8608
68.8608
68.8608
68.8608
68.8608
68.8608
68.8608
68.8608
68.8608
68.8608
68.8608
68.8608
68.8608
68.8608
68.8608
68.8608
68.8608
68.8608
68.8608
68.8608
68.8608
68.8608
68.8608
68.8608
68.8608
68.8608
68.8608
68.8608
68.8608
68.8608
68.8608
68.8608
68.8608
68.8608
68.8608
68.8608
68.8608
68.8608
68.8608
68.8608
68.8608
68.8608
68.8608
68.8608
68.8608
68.8608
68.8608
68.8608
68.8608
68.8608
68.8608
68.8608
68.8608
68.8608
68.8608
68.8608
68.8608
68.8608
68.8608
68.8608
68.8608
68.8608
68.8608
68.8608
68.8608
68.8608
68.8608
68.8608
68.8608
68.8608
68.8608
68.8608
68.8608
68.8608
68.8608
68.8608
68.8608
68.8608
68.8608
68.8608
68.8608
68.8608
68.8608
68.8608
68.8608
68.8608
68.8608
68.8608
68.8608
68.8608
68.8608
68.8608
68.8608
68.8608
68.8608
68.8608
68.8608
68.8608
68.8608
68.8608
68.8608
68.8608
68.8608
68.8608
68.8608
68.8608
68.8608
68.8608
68.8608
68.8608
68.8608
68.8608
68.8608
68.8608
68.8608
68.8608
68.8608
68.8608
68.8608
68.8608
68.8608
68.8608
68.8608
68.8608
68.8608
68.8608
68.8608
68.8608
68.8608
68.8608
68.8608
68.8608
68.8608
68.8608
68.8608
68.8608
68.8608
68.8608
68.8608
68.8608
68.8608
68.8608
68.8608
68.8608
68.8608
68.8608
68.8608
68.8608
68.8608
68.8608
68.8608
68.8608
68.8608
68.8608
68.8608
68.8608
68.8608
68.8608
68.8608
68.8608
68.8608
68.8608
68.8608
68.8608
68.8608
68.8608
68.8608
68.8608
68.8608
68.8608
68.8608
68.8608
68.8608
68.8608
68.8608
68.8608
68.8608
68.8608
68.8608
68.8608
68.8608
68.8608
68.8608
68.8608
68.8608
68.8608
68.8608
68.8608
68.8608
68.8608
68.8608
68.8608
68.8608
68.8608
68.8608
68.8608
68.8608
68.8608
68.8608
68.8608
68.8608
68.8608
68.8608
68.8608
68.8608
68.8608
68.8608
68.8608
68.8608
68.8608
68.8608
68.8608
68.8608
68.8608
68.8608
68.8608
68.8608
68.8608
68.8608
68.8608
68.8608
68.8608
68.8608
68.8608
68.8608
68.8608
68.8608
68.8608
68.8608
68.8608
68.8608
68.8608
68.8608
68.8608
68.8608
68.8608
68.8608
68.8608
68.8608
68.8608
68.8608
68.8608
68.8608
68.8608
68.8608
68.8608
68.8608
68.8608
68.8608
68.8608
68.8608
68.8608
68.8608
68.8608
68.8608
68.8608
68.8608
68.8608
68.8608
68.8608
68.8608
68.8608
68.8608
68.8608
68.8608
68.8608
68.8608
68.8608
68.8608
68.8608
68.8608
68.8608
68.8608
68.8608
68.8608
68.8608
68.8608
68.8608
68.8608
68.8608
68.8608
68.8608
68.8608
68.8608
68.8608
68.8608
68.8608
68.8608
68.8608
68.8608
68.8608
68.8608
68.8608
68.8608
68.8608
68.8608
68.8608
68.8608
68.8608
68.8608
68.8608
68.8608
68.8608
68.8608
68.8608
68.8608
68.8608
68.8608
68.8608
68.8608
68.8608
68.8608
68.8608
68.8608
68.8608
68.8608
68.8608
68.8608
68.8608
68.8608
68.8608
68.8608
68.8608
68.8608
68.8608
68.8608
68.8608
68.8608
68.8608
68.8608
68.8608
68.8608
68.8608
68.8608
68.8608
68.8608
68.8608
68.8608
68.8608
68.8608
68.8608
68.8608
68.8608
68.8608
68.8608
68.8608
68.8608
68.8608
68.8608
68.8608
68.8608
68.8608
68.8608
68.8608
68.8608
68.8608
68.8608
68.8608
68.8608
68.8608
68.8608
68.8608
68.8608
68.8608
68.8608
68.8608
68.8608
68.8608
68.8608
68.8608
68.8608
68.8608
68.8608
68.8608
68.8608
68.8608
68.8608
68.8608
68.8608
68.8608
68.8608
68.8608
68.8608
68.8608
68.8608
68.8608
68.8608
68.8608
68.8608
68.8608
68.8608
68.8608
68.8608
68.8608
68.8608
68.8608
68.8608
68.8608
68.8608
68.8608
68.8608
68.8608
68.8608
68.8608
68.8608
68.8608
68.8608
68.8608
68.8608
68.8608
68.8608
68.8608
68.8608
68.8608
68.8608
68.8608
68.8608
68.8608
68.8608
68.8608
68.8608
68.8608
68.8608
68.8608
68.8608
68.8608
68.8608
68.8608
68.8608
68.8608
68.8608
68.8608
68.8608
68.8608
68.8608
68.8608
68.8608
68.8608
68.8608
68.8608
68.8608
68.8608
68.8608
68.8608
68.8608
68.8608
68.8608
68.8608
68.8608
68.8608
68.8608
68.8608
68.8608
68.8608
68.8608
68.8608
68.8608
68.8608
68.8608
68.8608
68.8608
68.8608
68.8608
68.8608
68.8608
68.8608
68.8608
68.8608
68.8608
68.8608
68.8608
68.8608
68.8608
68.8608
68.8608
68.8608
68.8608
68.8608
68.8608
68.8608
68.8608
68.8608
68.8608
68.8608
68.8608
68.8608
68.8608
68.8608
68.8608
68.8608
68.8608
68.8608
68.8608
68.8608
68.8608
68.8608
68.8608
68.8608
68.8608
68.8608
68.8608
68.8608
68.8608
68.8608
68.8608
68.8608
68.8608
68.8608
68.8608
68.8608
68.8608
68.8608
68.8608
68.8608
68.8608
68.8608
68.8608
68.8608
68.8608
68.8608
68.8608
68.8608
68.8608
68.8608
68.8608
68.8608
68.8608
68.8608
68.8608
68.8608
68.8608
68.8608
68.8608
68.8608
68.8608
68.8608
68.8608
68.8608
68.8608
68.8608
68.8608
68.8608
68.8608
68.8608
68.8608
68.8608
68.8608
68.8608
68.8608
68.8608
68.8608
68.8608
68.8608
68.8608
68.8608
68.8608
68.8608
68.8608
68.8608
68.8608
68.8608
68.8608
68.8608
68.8608
68.8608
68.8608
68.8608
68.8608
68.8608
68.8608
68.8608
68.8608
68.8608
68.8608
68.8608
68.8608
68.8608
68.8608
68.8608
68.8608
68.8608
68.8608
68.8608
68.8608
68.8608
68.8608
68.8608
68.8608
68.8608
68.8608
68.8608
68.8608
68.8608
68.8608
68.8608
68.8608
68.8608
68.8608
68.8608
68.8608
68.8608
METADATA
INFORMATION 0

length 1 951 float
517.468
499.358
322.094
254.798
131.248
525.704
242.715
299.955
515.379
399.292
495.423
490.226
502.162
395.014
492.183
398.451
512.366
290.843
458.96
459.453
300.485
300.204
299.905
458.38
262.496
193.494
328.642
291.632
353.292
272.97
385.388
286.22
135.303
270.825
277.824
282.047
288.444
288.386
287.763
315.333
285.902
285.02
284.927
285.87
157.816
288.186
290.596
295.548
305.275
368.997
271.157
277.776
179.958
654.955
356.712
384.525
137.861
281.676
135.303
308.89
297.653
296.574
361.711
421.124
424.447
375.512
357.749
303.331
302.751
302.444
362.134
421.941
421.845
361.923
302.249
303.033
303.933
359.44
379.135
430.439
427.716
378.036
366.034
306.848
300.924
148.685
157.816
460.993
411.038
387.458
410.357
415.376
392.871
392.928
505.304
506.976
387.77
386.49
387.486
272.251
157.414
301.732
371.794
286.699
150.508
316.729
394.315
18.5856
267.452
365.214
305.949
300.078
295.879
427.312
302.353
302.71
302.918
448.533
355.078
299.816
157.302
318.731
304.361
282.416
495.698
312.217
312.187
311.982
293.397
381.296
284.894
289.066
305.157
292.958
296.257
138.506
266.592
375.38
195.497
402.391
197.591
281.676
286.401
385.595
304.105
314.273
297.328
310.979
279.689
143.7
370.791
294.901
407.397
258.105
385.739
193.137
509.959
401.997
394.37
466.183
274.729
504.503
157.302
496.626
298.607
298.339
299.946
181.905
416.892
398.556
291.734
306.937
322.188
137.861
358.13
285.877
293.542
311.619
311.8
311.799
294.816
384.92
285.68
295.381
310.747
306.717
312.813
312.01
305.694
302.136
306.127
292.26
358.433
449.672
258.926
491.77
535.824
301.309
471.454
18.5856
489.345
402.981
254.639
463.578
359.625
304.063
302.621
301.283
439.013
300.077
301.427
302.359
360.887
415.47
408.174
297.177
304.835
313.645
380.411
518.171
335.525
377.484
293.427
309.363
288.446
376.691
287.229
294.789
398.432
314.63
313.936
313.429
193.137
605.515
416.895
482.237
483.23
392.435
418.968
419.251
394.052
391.988
391.636
388.639
143.7
158.141
511.893
520.099
195.846
276.98
403.244
528.525
538.698
530.338
398.805
140.648
405.681
373.053
544.929
551.139
554.993
384.234
267.452
484.122
450.488
303.598
317.076
318.31
389.953
281.174
429.242
139.661
470.752
152.94
314.331
320.62
160.559
286.136
291.149
148.035
310.034
302.403
312.001
309.071
392.221
390.993
311.187
309.784
308.467
298.954
150.907
258.105
590.414
484.028
518.037
410.745
518.321
495.099
503.275
395.156
397.957
524.053
404.81
517.046
490.713
494.317
506.516
507.171
181.905
536.951
297.766
296.407
182.272
312.29
330.723
393.51
294.806
290.299
314.924
303.912
297.177
397.944
332.009
311.283
293.066
395.895
169.373
156.773
288.398
360.068
284.97
148.035
511.635
363.366
328.86
285.607
330.963
368.92
393.045
266.329
386.156
387.011
389.953
402.349
413.915
182.272
469.814
384.893
293.979
296.578
319.554
324.194
328.847
330.259
319.905
310.87
406.572
384.127
381.343
390.5
254.639
607.541
378.953
428.804
422.864
359.121
294.158
297.892
303.737
369.297
426.028
426.363
369.334
302.329
297.269
293.825
375.953
413.911
324.041
316.822
311.339
392.449
314.436
322.954
331.798
388.486
269.344
364.167
342.711
307.001
312.805
318.525
316.753
301.08
287.205
380.346
305.246
323.667
328.975
322.594
158.197
78.3325
368.393
274.382
370.279
317.174
279.633
557.892
308.975
319.816
305.523
359.776
454.871
151.324
301.704
300.525
449.127
296.124
306.7
322.445
380.316
510.761
331.156
377.503
292.292
303.241
306.201
308.202
289.876
286.538
381.356
289.629
311.165
311.732
308.943
317.117
400.522
295.203
381.136
328.699
530.789
329.582
378.018
278.483
271.143
347.382
258.409
545.981
271.593
423.001
291.988
292.993
295.177
435.276
286.78
429.548
197.591
410.441
474.527
293.609
331.553
340.395
305.959
150.907
158.197
254.798
150.508
410.547
301.623
190.087
383.941
386.563
387.984
388.781
312.366
312.12
311.819
387.944
190.087
221.189
266.061
397.282
388.989
383.682
379.998
378.82
265.866
406.11
404.827
195.846
464.536
325.4
365.426
378.165
379.888
375.539
359.495
315.456
362.119
272.658
366.737
260.888
385.031
359.715
195.497
426.529
572.768
542.235
308.183
455.767
306.831
341.302
330.741
399.936
131.248
255.01
542.839
403.166
400.092
395.596
392.085
389.443
387.29
386.114
550.401
384.284
295.231
383.767
332.593
372.152
384.543
387.783
389.145
389.672
390.01
312.571
312.871
312.506
312.923
313.076
390.185
389.923
389.7
389.527
389.538
312.505
312.336
311.846
388.071
387.067
386.492
389.064
408.591
319.278
312.433
305.456
383.574
388.201
393.838
392.561
388.1
304.715
299.915
293.647
371.693
544.823
533.874
367.841
266.333
418.737
423.414
271.874
538.679
403.342
267.881
552.516
273.563
382.454
381.431
267.316
402.464
265.81
199.065
141.209
364.864
304.92
359.746
283.894
424.441
282.495
199.065
429.856
306.129
174.512
388.666
309.03
311.235
295.278
365.074
294.992